 -2.0874462e+00   8.7011198e-05
 -1.6676121e+00   1.2238290e-04
 -1.5380697e+00   2.6223410e-04
 -9.6711147e-01   1.8772219e-04
 -2.0947943e+00   3.5039149e-05
  3.0427067e+00   4.4036813e-05
 -2.5541141e+00   1.4254808e-05
  1.0317310e+00   1.3593226e-04
  1.6553417e+00   2.5826436e-04
 -1.2569966e+00   3.3181478e-04
 -1.3118452e+00   6.5725595e-05
 -6.2907618e-01   6.2985398e-04
  4.3602619e+00   1.1943908e-04
 -1.3167807e+00   1.2077192e-03
  4.9378002e-01   4.6526722e-04
  5.9056407e-01   1.7000592e-04
  1.4195570e-01   9.9649769e-04
  2.1260374e+00   5.3560780e-04
  1.6666925e+00   1.3752916e-03
 -1.4180848e-01   5.0993450e-04
 -2.2224762e+00   5.0618168e-04
 -1.6519860e+00   6.5455235e-05
  1.0576602e-01   1.1508928e-03
 -2.2951281e+00   2.9816706e-04
 -4.8578115e+00   9.4414681e-06
 -2.3389666e+00   5.1263697e-04
  2.0323994e+00   3.1306763e-04
 -6.8613541e-01   3.4955100e-04
  1.5819473e+00   2.8501020e-04
 -1.1904166e+00   5.7503616e-04
 -1.2416913e-01   1.9614218e-04
  1.8160033e+00   1.2242477e-04
  1.5211402e+00   3.5237783e-04
 -1.2778677e+00   1.9096951e-04
  1.4425849e+00   5.1572232e-04
 -4.4128314e-01   1.4632865e-04
 -4.0723815e+00   2.7739932e-04
 -2.7808702e-01   9.5342410e-05
  3.1261776e-02   4.3321538e-04
 -1.2709497e+00   3.2164229e-04
  1.2575661e+00   4.9724022e-04
 -2.0278861e-01   6.4670996e-05
 -4.1057295e-01   4.3340863e-04
  5.8094305e-01   2.0624447e-04
 -2.9410567e+00   5.0785187e-05
 -8.3553517e-01   5.4326407e-05
 -2.3234003e+00   5.3326334e-05
  7.0106171e-02   2.8479641e-05
 -6.1172437e-02   2.5453026e-04
  5.6783724e-01   5.8150072e-05
 -3.1883640e-03   4.9360049e-05
  3.2473328e+00   4.2993890e-04
 -8.3268571e-01   3.6554633e-05
 -2.1497753e+00   1.4446490e-04
  1.0706847e+00   2.3980015e-04
  1.5966105e-01   2.3115303e-04
  3.2679793e-01   1.9764103e-04
 -5.1355159e-01   7.4627926e-05
  1.5933386e+00   4.7050379e-04
 -1.6817362e+00   4.0406818e-04
  2.7274809e+00   4.1654916e-05
 -3.2915196e+00   6.0629327e-04
  1.4182295e-01   4.6767856e-04
  8.2870698e-01   1.5769170e-04
 -8.1141472e-01   1.1113434e-04
 -4.2169619e-01   2.6242892e-04
  1.2300000e-01   1.4045667e-04
  1.7263488e+00   2.3436306e-04
  2.6059127e-01   1.4968234e-04
  1.1588025e-01   1.8222984e-04
  2.7775118e-01   2.0657206e-05
 -4.7956002e-01   5.6033523e-04
 -4.8863119e-01   9.0269386e-05
 -8.1641960e-01   1.6761319e-04
  5.1985830e-01   3.0856431e-04
  4.0198120e-01   1.2984278e-03
  1.1127516e+00   9.3021110e-05
  2.7276514e+00   1.7871145e-04
  1.1948372e+00   2.4647039e-04
 -8.1450075e-01   2.0793672e-05
 -1.2960602e-01   1.5598848e-03
 -9.1025543e-01   5.0949055e-04
  1.6117444e-02   3.4511343e-03
  1.9720344e-02   1.7282382e-03
 -1.8694847e+00   9.1944356e-04
 -6.9099742e-01   2.8375156e-05
 -5.5731934e-01   2.4784226e-03
  1.7655851e-02   3.1249027e-04
  4.1903454e-01   5.7943404e-04
  3.5349131e+00   1.7870538e-04
  2.5630554e-03   7.7175285e-04
 -2.0749725e-02   1.6891527e-03
 -1.0148772e-03   1.4230241e-03
  1.7265957e-02   1.9666087e-03
  1.4484116e-02   1.9529923e-03
  2.7798952e-03   6.8097445e-04
  9.5626390e-05   2.9724278e-03
  1.0127661e-02   2.1290772e-03
 -4.1224860e-02   3.7466313e-03
 -1.7002259e-03   1.9584475e-03
 -5.9094511e-02   1.3229446e-05
  1.7613028e-03   1.0383702e-03
 -1.7402470e-02   2.5022842e-04
 -1.6867634e-02   4.3165088e-03
 -1.2756368e-03   1.8536971e-03
 -1.0430601e-02   1.3752258e-03
  9.7095691e-02   1.0746316e-04
  2.7064493e+00   3.3926259e-05
  4.3403344e+00   1.6766426e-04
 -6.2237775e-01   1.3980785e-05
  3.3547261e+00   1.5167674e-05
 -3.0514804e-01   1.8273610e-04
  2.3466676e-01   8.7935252e-05
 -1.1465417e+00   7.5825388e-05
  4.0335268e-01   2.9197257e-04
 -5.8463413e-01   4.2924826e-04
 -1.9777460e+00   4.0862824e-06
  7.2185832e-01   2.7888182e-05
  7.3191017e-02   4.4603307e-06
 -1.2271501e+00   2.5520573e-04
 -8.3719182e-01   2.4772593e-04
 -1.2559576e-01   6.4658438e-04
 -1.0465618e+00   7.1149472e-05
  6.8335819e-01   5.6928466e-04
  1.2502704e+00   1.9330999e-03
 -1.0092704e+00   2.2789338e-03
  6.9617696e-02   6.1285577e-06
 -3.0230382e-01   2.5938838e-03
 -1.1930236e+00   1.9813381e-04
  2.2808425e+00   8.3501980e-04
 -1.4250138e+00   1.1182257e-03
 -2.9098013e-01   1.6865315e-03
 -2.7081914e+00   8.4714987e-04
 -1.7916491e+00   9.3558388e-05
 -2.3323348e+00   3.5822188e-05
 -9.5650929e-01   1.4150741e-04
 -6.4155413e-04   6.7393924e-04
 -2.8035486e+00   4.5686473e-05
  2.7603786e+00   3.4088633e-05
  3.2481197e-01   1.3154253e-04
 -1.1417222e+00   8.4083340e-06
 -1.9709383e+00   1.1488526e-03
  2.1687067e+00   1.5575520e-04
 -3.5013568e-01   2.9513269e-04
 -9.2097098e-01   3.2240056e-04
 -3.9993426e-01   1.2636230e-03
  3.5442695e-01   3.6187281e-04
  1.4363213e+00   5.2133637e-05
  5.6068969e-01   4.3714077e-05
 -1.5925674e+00   4.0399784e-04
 -2.8430994e+00   3.1190107e-04
  5.0746602e-01   5.3995846e-05
  2.7228200e+00   1.0118035e-04
 -9.0019740e-03   1.4177421e-05
  2.4417129e+00   6.1625768e-05
 -1.3433623e+00   1.5327030e-04
 -2.8046399e-01   7.3840842e-05
  2.9671090e+00   2.8030772e-05
  8.3618176e-01   3.2576910e-04
 -2.6670209e-01   1.3870276e-04
 -3.2023919e-01   8.0809864e-04
 -2.1355886e+00   4.2826371e-04
  1.8911605e-01   2.6100178e-04
  1.1270519e+00   1.7763678e-05
  8.8603580e-01   1.6634968e-04
 -2.4629111e+00   5.6079269e-04
  1.2488567e+00   3.9549323e-04
  6.7146176e-01   8.1597018e-06
  2.6090783e-01   5.5623549e-04
 -3.3823342e+00   9.8674500e-05
  3.4413044e+00   1.1898544e-04
 -8.6894000e-01   5.9740205e-04
 -1.0640299e+00   7.7532874e-05
 -1.0914384e+00   6.4757589e-04
 -1.2806723e+00   1.9724414e-04
 -6.5021805e-02   1.8486290e-04
  7.2036201e-01   3.2125434e-04
 -1.9791421e-01   8.9055084e-04
 -9.2711157e-01   5.6456565e-04
 -2.4726417e+00   4.6386782e-07
  1.7253437e+00   1.1871616e-05
  5.6821454e-01   4.3303797e-05
 -2.7129626e-01   7.6604099e-04
 -1.5266359e+00   5.6571567e-05
 -1.0268525e+00   8.4763087e-05
 -9.5963919e-01   4.5282923e-04
 -2.4965546e-01   4.6761392e-04
 -9.4911624e-03   1.7524917e-03
 -3.6123190e-02   8.4816240e-04
  8.2590121e-01   5.7336694e-04
 -1.0608795e+00   4.5872680e-04
 -2.5894263e-04   2.2318056e-03
  1.3094380e-01   6.8837852e-04
  2.1415683e-03   2.6952024e-03
 -2.2722398e-01   1.4566367e-04
 -1.5411610e-04   1.2907216e-03
 -3.6636955e-01   3.0098369e-04
 -5.7785530e-03   1.8275316e-03
  2.0308271e-03   1.6120952e-03
  5.7426262e-01   4.7346103e-04
 -1.6565089e+00   9.5580242e-07
  1.0428660e-02   1.5445093e-03
 -1.1335265e-02   2.5373707e-03
 -3.1091797e-03   1.1406912e-03
  1.7702077e-03   1.4611169e-03
  1.8446335e-03   9.0426597e-04
  1.7780329e-03   1.7247056e-03
  6.0884776e-03   2.6127687e-03
 -2.6692981e-02   7.5058891e-03
 -5.2193996e-02   7.7416131e-05
  2.4196152e-03   1.0658995e-03
  4.0336428e-03   1.9610883e-03
 -1.5187883e-02   1.1232030e-03
  5.7555037e-03   2.3396655e-03
 -1.9539615e+00   4.0186174e-07
  1.2182924e+00   5.3892564e-04
  8.9443885e-02   1.0155633e-04
 -1.9480813e+00   1.4637756e-04
  1.0648443e+00   4.7793996e-04
  2.3282599e+00   3.4524756e-04
 -8.7462562e-01   1.2055854e-04
 -8.3211791e-03   6.0056854e-04
 -2.6626912e-01   1.5273970e-04
  3.5807116e+00   1.9067951e-04
 -1.8649551e+00   1.0150795e-04
 -1.0772703e+00   4.1525971e-04
 -3.1573746e+00   1.9165622e-04
 -5.6655937e-01   1.1560915e-03
 -2.0439743e-01   1.6769618e-03
  3.0319889e+00   2.4637458e-04
 -7.0580077e-01   1.1054580e-03
  1.1806700e+00   6.3004938e-04
 -1.0712057e+00   5.0547981e-04
  2.1926336e-01   2.4161497e-04
 -6.2043527e-03   7.1456103e-04
 -2.3244112e+00   5.9290940e-04
  2.0188188e-02   1.2929533e-03
  2.0788615e+00   8.1696344e-04
  1.1759821e+00   4.5371446e-04
  1.6776738e+00   6.6638441e-04
 -1.3762488e+00   1.1248023e-03
 -9.8546761e-01   2.0641679e-04
 -6.9113052e-01   5.6710199e-04
 -2.3639861e-01   4.6809390e-04
 -4.0709691e+00   3.1117946e-04
 -3.1913273e+00   2.2151440e-04
  1.5075608e-01   5.5933616e-04
  9.2614043e-01   3.2529610e-04
 -6.0969144e-01   4.3692513e-04
 -1.6746162e+00   5.1362667e-04
  2.6536036e+00   4.3929827e-05
  5.6304908e-01   4.4005003e-04
  1.5000277e+00   1.5419588e-05
  5.0381329e-02   4.8753820e-04
  2.3024948e+00   2.3216652e-04
 -2.2252607e-01   3.0554691e-04
 -2.3080327e-01   2.5529141e-04
  3.1271763e+00   7.3861988e-04
  3.3826108e+00   1.6680342e-04
 -4.2436132e+00   7.4318421e-05
 -1.1575851e-02   3.5922998e-04
 -4.1572589e-01   1.2686900e-04
  1.7251859e+00   5.0904910e-04
  6.3017678e-01   4.5541292e-05
  9.9815071e-02   4.1997858e-04
 -1.0851150e+00   7.6075830e-04
 -3.1869926e+00   2.5455971e-04
 -2.1849182e+00   1.2886127e-03
 -4.4915393e-01   1.1321729e-03
 -4.6582678e-01   4.9112103e-04
  6.7720283e-03   2.7617131e-04
 -4.3807840e-01   3.2577154e-05
  8.0061007e-01   5.5493711e-04
 -2.0863678e-01   2.6384363e-05
 -3.0505114e+00   2.4569419e-04
 -6.8257231e-01   4.2742488e-04
  3.2764891e-01   2.1344918e-04
  1.5151278e+00   5.2131883e-05
  2.8248930e-01   7.3503266e-04
 -1.1043624e+00   7.9669972e-04
 -3.3865447e+00   4.6421360e-04
  1.0938100e-01   7.4032971e-05
  1.1983732e+00   3.8577424e-04
  8.2179677e-01   3.8344962e-05
 -3.9657590e-01   8.9437322e-04
  1.2196635e+00   4.1605430e-04
 -6.7781174e-01   1.5506362e-04
 -1.0189157e-01   7.0159673e-04
  2.9991734e-01   6.4419338e-04
 -4.8165739e-02   2.8252595e-03
 -1.1381671e+00   2.1281445e-03
  1.4273741e+00   7.0853420e-03
 -4.9326114e-02   3.7991251e-03
  3.6643565e+00   7.7597011e-04
  3.4048700e+00   4.5461961e-04
 -2.4836738e+00   2.6946438e-03
 -1.9662136e+00   3.3612788e-04
 -8.8778281e-01   6.3314778e-03
 -1.0638903e-02   9.9127425e-04
 -2.3786378e+00   3.4784865e-05
 -5.1674764e-03   1.6251768e-03
 -1.2045206e+00   2.9908605e-03
  1.5573485e+00   1.7084346e-04
 -2.7520771e+00   4.0903711e-04
  4.2886402e-02   1.7482353e-03
  7.3157949e-03   2.7443522e-03
 -6.6094601e-04   1.3751169e-03
 -3.5802475e-03   1.3690363e-03
 -5.6727557e-03   2.0845623e-03
  4.8681465e-01   6.8321667e-04
 -9.1108317e-03   1.7500543e-03
  2.3478146e-01   6.0237045e-07
  4.6391184e-03   2.1049150e-03
  2.6578717e-02   1.1526620e-03
  2.7200049e-03   1.9590510e-03
 -1.2571454e-02   1.6482042e-03
  1.5375220e-03   8.6983084e-05
  3.6456488e-02   2.4806221e-03
  6.5597723e-04   1.6614485e-03
 -3.1026837e-03   2.5850688e-03
 -5.8099190e-03   1.0540977e-03
  1.2864130e+00   4.6195069e-04
 -1.2816827e+00   1.5527855e-03
 -1.5639955e+00   1.4226401e-03
  5.0157255e-01   1.0401072e-03
  4.6860999e-03   5.1677017e-04
  2.1020303e+00   5.8179296e-04
  6.6103840e+00   3.9990901e-04
 -2.7313665e-02   3.2502494e-03
 -7.9507023e-01   1.0752713e-04
 -9.6733332e-01   3.3654927e-04
 -5.5288452e-01   1.8925208e-04
  8.5945949e-03   2.2747156e-03
  5.6497093e-02   6.3001754e-04
  8.1186951e-04   1.9765228e-03
  2.6696148e+00   4.9505942e-04
  2.4339037e+00   2.0292124e-03
  2.1726444e+00   3.2914057e-03
  1.1372759e-01   2.1720016e-03
 -6.5862839e-03   1.0585238e-03
 -4.8750994e-01   1.8479207e-03
  5.6487262e-01   5.5505601e-03
  1.3775830e+00   3.2237959e-03
  6.9543761e-03   4.0562167e-03
  1.3181929e-02   1.3978297e-03
  2.3866754e-02   1.7623963e-03
 -1.6469033e+00   3.1052856e-04
  1.8485074e+00   3.7171042e-03
 -7.1786356e-01   9.5165666e-04
  9.9509728e-01   5.7143933e-04
  1.2271743e-02   2.6078809e-03
 -4.9147543e-02   1.3426997e-03
 -1.7729879e-03   3.2218493e-04
 -1.7006951e-03   2.7644183e-04
  1.7512429e+00   1.1526016e-03
  1.8128508e+00   6.6750724e-04
 -1.8676426e+00   8.4028143e-05
 -7.5620276e-01   1.9903648e-04
  1.5898822e-02   1.7004205e-03
 -4.3097532e-01   4.4037984e-03
  1.0094303e+00   4.2532748e-04
  2.7276799e-01   4.1467476e-05
  2.9351475e+00   3.0278032e-05
 -5.3767949e-01   5.2363455e-04
 -4.9240053e-01   2.8790340e-03
 -1.9440364e-02   1.6433131e-03
  1.4759605e-01   1.2486973e-03
 -1.0351444e-02   7.5259357e-04
  8.8100070e-01   2.3324517e-04
  1.0708023e+00   3.5339392e-05
 -3.3424085e-03   8.2052598e-04
  5.8847107e-04   7.5620221e-04
 -9.1167325e-03   1.0563932e-04
  2.5854917e+00   1.3318984e-04
  2.7237171e-03   9.5497980e-04
  1.2591072e+00   9.1754476e-04
 -1.5159193e-01   7.3408475e-05
  1.3998810e+00   1.8207624e-05
 -1.8051950e-02   5.9627474e-04
 -1.4906104e-03   6.3906261e-04
 -9.1550685e-03   9.2718215e-04
 -4.9009612e-03   9.7553490e-04
 -2.3019789e-03   2.5489088e-03
 -3.1706366e-01   2.7134096e-05
  1.4601604e+00   1.1907878e-03
 -1.7198749e-04   4.6481469e-04
  2.9078037e-02   1.2923538e-03
  7.1144393e-03   2.3574897e-03
  1.5818333e-02   6.5215083e-04
  6.2810988e-03   2.3360713e-03
  1.3677315e-03   7.4536912e-04
 -1.2657363e-03   9.8892453e-04
 -7.5397468e-01   3.0952075e-03
 -5.4666805e-01   4.6618460e-04
  2.2181606e-02   5.6714343e-04
 -3.7189879e-04   5.3490052e-04
  4.4937246e-03   2.4929761e-05
 -2.1153715e-02   1.0702999e-03
 -3.2587419e-03   1.2410530e-03
  2.5328153e-03   1.4786319e-03
  4.3219200e-01   1.4631297e-03
 -3.4215564e-03   1.1624240e-03
  5.9489302e-02   3.6225458e-05
 -1.0446365e-03   1.6865865e-03
 -3.7239497e-03   2.8689329e-03
  2.1974754e-02   1.0507657e-03
 -4.0144104e-04   1.9596163e-03
 -8.3484622e-03   1.2713047e-03
  1.5774576e-01   3.6506678e-06
  2.8393923e-03   2.3551891e-03
  1.1160773e-02   1.7354283e-03
  5.0720404e-04   2.3935146e-03
 -3.2514727e-01   3.4733701e-05
 -6.7546689e-03   8.9421455e-04
 -1.6026897e-02   4.9063135e-03
  5.6559192e-03   2.5889033e-03
  1.3721046e-03   1.2534123e-03
  7.5176632e-04   5.5263785e-04
 -1.0686221e-02   7.0746013e-05
 -1.8068453e-03   1.8101942e-03
  3.5287686e-02   3.3312389e-03
  1.4457863e-03   1.1064003e-03
  2.8542744e-03   1.6778717e-03
 -1.0053278e-02   1.4700764e-03
 -2.5834932e-03   2.0873020e-03
 -2.0454414e-03   8.1390876e-04
 -2.3336023e-01   1.4424925e-04
  1.6986140e-03   9.0245233e-04
 -1.4892685e+00   1.5731367e-04
  4.7380105e-01   7.7095558e-04
  2.6039803e+00   2.7959995e-04
  5.9113774e+00   9.8259137e-05
  1.0761328e+00   6.7276240e-04
 -1.0272113e+00   2.7007940e-07
 -2.2251260e-01   9.9358178e-05
 -3.8868980e+00   7.2813000e-06
  1.3103603e+00   9.5114007e-04
 -1.1592240e+00   1.4510541e-04
  6.0010099e-01   1.0377005e-04
 -2.2128267e+00   1.4580794e-03
  5.0704423e-02   9.4052136e-04
  7.8766674e-01   2.9861033e-03
 -1.2098239e-01   3.8520698e-04
  2.5744350e+00   1.2785329e-03
  4.8285681e-01   1.7875941e-03
  4.6659711e-01   1.2059706e-04
  1.1328060e-04   1.6423479e-03
  7.4490897e-02   4.0620060e-05
  6.5570068e-01   1.0058049e-03
  3.7484176e-02   9.3441282e-04
  5.1904581e-03   2.3615034e-03
 -1.9652874e+00   2.7496839e-04
  1.4017328e-03   6.5761578e-04
 -2.3066542e+00   1.2287472e-03
  1.0594308e+00   1.0269735e-03
 -1.2034489e+00   1.3542691e-05
  9.4827014e-01   3.8150820e-04
  1.5525806e+00   1.1682947e-03
 -3.0680960e-01   6.4987130e-04
 -1.4003510e+00   1.4796742e-04
  1.2707722e+00   1.0468671e-03
  2.4377971e+00   3.4425269e-05
  1.7565452e-02   1.5159537e-03
 -1.5305845e+00   6.9283653e-04
  1.2889488e-01   8.6580653e-04
  7.8597647e-01   1.6225901e-03
  9.3240929e-01   3.0297911e-04
 -1.8341233e+00   4.8454822e-04
 -1.4202684e-01   5.6897632e-05
 -1.1839296e+00   1.5393818e-05
  9.4389971e-03   1.9361889e-03
  1.4485449e+00   5.9352344e-04
 -5.9393287e-01   3.3965713e-04
  5.5300939e-01   2.4165164e-03
 -1.9853029e+00   5.3346826e-04
 -1.5482429e+00   4.5537465e-04
 -1.8224834e+00   4.4625040e-04
  2.1283205e+00   5.7613011e-04
  6.7374456e-01   4.4108665e-04
  7.9273395e-02   7.0572115e-04
  1.5677601e-01   1.5079149e-04
 -3.4183007e-01   5.8714621e-04
 -3.3148994e+00   1.0919239e-03
  7.4787152e-01   7.4431684e-04
  6.3258022e-01   8.0172677e-04
 -2.3579532e-01   2.4258427e-04
  3.1076637e-04   3.8483317e-04
  4.6989113e-01   5.5736100e-04
 -3.0458793e-03   8.3702907e-04
 -8.2629478e-01   2.7855942e-03
  4.1223608e-02   5.6381233e-04
 -1.6718142e+00   4.6059379e-04
  2.6275805e-01   2.2119558e-03
 -8.7736231e-01   7.1553007e-04
 -1.3433092e+00   9.4588555e-04
 -6.5451300e-01   1.6351946e-03
 -7.0440733e-01   4.6598370e-04
  6.0157400e-01   1.3927355e-03
  9.6241366e-03   2.5830782e-04
  2.1009934e-04   1.0487450e-03
  1.6188219e-02   1.2080451e-03
  1.6103063e+00   2.7764056e-04
 -3.8403950e-03   1.1526865e-03
 -6.3219583e-01   5.2354769e-03
  2.2703691e-03   2.1108282e-03
  3.9507337e-03   1.3971895e-03
 -5.1604253e-03   2.1986470e-03
  2.3403347e+00   1.9162260e-03
  3.1044381e+00   8.3116749e-05
  1.9616801e-01   3.8338493e-04
  1.3485172e-02   7.1412476e-04
 -2.0317970e-02   2.5481943e-03
  1.0774225e-02   1.0709622e-03
 -3.2565135e-01   1.7427627e-04
 -1.5401981e-02   1.0383272e-03
 -8.9720988e-01   3.3751701e-03
  2.9847738e-03   3.3812565e-03
 -2.4095728e-01   6.2956306e-04
 -2.2402913e-03   5.3327612e-04
  8.2109887e-03   1.9640001e-03
 -1.5312613e-03   7.0129521e-04
  7.7008842e-03   2.5835515e-03
  2.4755842e-03   2.1510699e-03
  4.2887884e-03   7.0052873e-04
  1.2442362e-02   2.4815425e-03
  6.7661135e-03   1.5295811e-03
 -1.0911856e-03   3.8735480e-03
 -2.6086694e-02   3.0575186e-04
 -1.3629399e-02   1.8833537e-03
  4.0753493e-03   8.8970474e-04
 -1.1194468e-02   6.9796317e-04
 -3.9446312e-03   3.3397845e-03
  4.1914336e-02   5.5396854e-04
  1.9001577e-02   5.6239095e-04
  1.8845996e-02   2.3634175e-03
  3.3729595e-01   7.7353710e-05
  1.4932519e+00   8.3877787e-04
  4.4352940e-01   2.1809708e-04
  2.6735311e+00   9.2930539e-05
  1.2347491e+00   9.5611269e-04
 -2.2693508e+00   3.4081654e-04
  6.1089121e-02   4.9977207e-05
 -3.6927314e+00   1.1426405e-03
 -1.0854811e-02   2.6283925e-04
  2.6538193e+00   2.2920844e-04
  4.0360904e+00   3.5719986e-05
  1.3761458e-01   2.8307585e-04
  1.5929257e+00   4.3473474e-04
 -1.1216489e-01   5.2017777e-04
 -2.8293588e+00   5.0529605e-04
  4.1044998e-01   1.7397047e-04
  1.2054895e+00   9.4851735e-04
 -1.5394686e-01   1.9494216e-03
  9.8076624e-01   1.0909127e-03
 -1.1270639e+00   8.7125594e-04
  9.3156314e-01   2.1687357e-04
  1.2559904e+00   8.6175080e-04
 -6.4823061e-01   1.6813247e-03
  2.3634799e+00   2.6232875e-03
  1.2060266e+00   4.9351546e-04
  3.1291022e+00   9.7704260e-04
  6.7543226e-01   1.0276553e-03
  6.2190909e-02   4.2941645e-04
 -3.0798244e-01   8.4366286e-05
  2.0299561e-01   1.3507353e-03
  4.0050617e-01   9.4491152e-05
  7.6803185e-02   1.5750223e-04
  4.5279291e-01   4.4687474e-04
 -5.6153238e-01   8.4443449e-04
  8.1337917e-01   1.4302757e-04
 -1.0355128e+00   5.4567304e-06
  2.4609520e+00   2.7664084e-04
 -9.1261052e-02   7.6830242e-04
 -6.4101118e-01   5.9446791e-04
  1.3453581e+00   3.8869865e-04
  3.7086494e-03   1.7349179e-04
  4.1718144e+00   9.3499233e-04
 -3.9399192e-01   8.0975151e-04
 -2.0999992e+00   5.2138383e-04
 -3.4139350e-01   1.0880254e-03
  3.7789550e-01   2.9644839e-04
  1.9422307e+00   4.7550903e-04
  1.3225701e+00   2.0978463e-04
 -7.6705402e-01   4.8093259e-04
  1.0512401e+00   1.6828395e-03
 -1.3553034e+00   3.0290263e-04
  8.3430996e-03   1.9955931e-03
  1.5452626e-02   5.9338847e-05
  2.9253215e-01   9.3510833e-05
  9.1007024e-01   1.4138112e-03
  6.2097460e-01   3.8723837e-04
 -4.1739041e-01   8.6652617e-05
 -2.4761906e-02   1.3518351e-04
  2.0539337e-01   6.7593489e-04
 -3.1047603e-01   7.3771784e-04
  6.1029725e-02   7.3704711e-04
  1.8609667e-01   3.0799315e-03
  1.8393447e+00   4.2880417e-04
  1.7290100e+00   8.4235828e-04
 -1.7961163e-02   3.7271570e-04
  2.8020552e-01   3.3366060e-04
 -1.0418760e+00   8.7291352e-04
 -5.4292673e-01   9.1505115e-04
 -1.4200803e+00   1.5253908e-04
 -8.3692417e-02   1.6658641e-04
  8.9145005e-01   8.6163374e-04
 -1.1469918e+00   9.9708478e-04
  4.1289422e-01   3.9119543e-05
 -7.4490589e-01   2.5542706e-04
 -1.3771657e+00   2.5608216e-04
 -2.3003707e+00   3.0496356e-03
  1.9230248e+00   2.8504375e-03
 -2.8107478e-03   2.6881220e-03
  3.9109378e-03   3.3603157e-03
 -1.6612924e+00   2.1429318e-03
  9.3681866e-04   2.9673206e-04
 -9.1406673e-01   1.3765846e-03
  1.8342062e+00   7.1969228e-03
  1.8052047e-02   4.5646555e-03
 -3.0565481e+00   3.4353109e-03
  7.5608995e-03   5.2421284e-04
  1.2369807e-02   2.4158948e-03
 -1.3419324e+00   4.6775532e-03
  2.4430549e+00   2.0351498e-03
  3.7243779e+00   1.3675606e-03
  3.9062738e-02   2.0268457e-03
 -2.9439583e-02   2.4056130e-03
  3.1149199e-03   2.1526506e-03
 -1.4451131e-03   1.5297828e-03
 -3.0379624e-03   1.6056002e-03
 -4.4651972e-03   4.3414724e-03
 -2.7092474e-05   1.5886188e-03
 -1.5234959e-02   1.4644753e-03
 -2.9826080e-03   5.6869647e-04
 -1.1031380e-02   1.4566822e-03
  8.6610811e-03   3.2508292e-03
 -5.4135751e-03   7.5320213e-04
 -4.9900222e-03   1.1041149e-03
 -7.3667355e-03   1.2844002e-03
  2.3308476e-03   2.0195253e-03
 -8.7661101e-03   1.3721405e-03
 -1.4867483e-02   8.3448435e-04
 -4.5713954e+00   1.6925353e-04
 -1.1953858e+00   8.1693106e-06
  3.2950416e+00   5.0045532e-05
 -2.4902992e+00   6.5544249e-05
  2.0298010e-02   5.0321757e-04
 -2.0628958e+00   2.0769208e-04
  9.6659946e-01   1.2602088e-04
  9.8497993e-01   2.6722014e-04
  6.7422742e-01   2.7612754e-04
  2.2921178e+00   4.3892891e-05
  2.3396931e+00   4.9541464e-05
 -1.6435835e+00   1.2477388e-04
 -2.7483663e-01   2.9473394e-04
 -6.4219832e-03   7.1503653e-04
 -1.8685079e+00   1.9002309e-04
  4.4883060e+00   1.7710845e-04
 -1.2111514e+00   6.7736121e-04
  1.8280820e+00   1.0141253e-03
 -1.3674020e+00   1.6278279e-03
  9.6430453e-03   4.7866418e-04
  3.0832136e-01   1.6179234e-04
  1.1822408e-01   8.5392111e-04
  4.3332274e-03   5.7502091e-04
 -2.8528683e+00   6.8190589e-04
  2.6284111e+00   1.4189130e-03
 -3.1562874e+00   3.8439711e-04
 -2.5282970e-03   1.1529826e-03
 -9.2096853e-01   4.9329567e-05
 -3.3284700e-01   2.9493886e-04
  4.7335103e-01   1.3403252e-03
  1.0998203e+00   5.9065101e-04
 -1.5640898e+00   2.9638793e-05
 -1.1645856e+00   4.4676376e-04
  1.0390546e+00   4.9115578e-04
 -2.4455965e+00   2.5320807e-05
  1.9433077e-01   4.9724444e-05
 -4.4018662e-01   1.0720007e-04
  6.9764817e-01   5.6892517e-04
  2.1551328e+00   9.0028730e-04
 -6.3595459e-02   4.9130054e-04
  3.8283962e-01   1.0719128e-04
 -9.4696146e-01   1.7984348e-04
 -1.0844494e-01   8.9245476e-04
  1.7716013e+00   1.6330861e-04
  4.8233458e-01   1.5993360e-04
 -2.1541217e-01   1.4901949e-03
 -2.6979914e+00   1.5954324e-04
 -7.1804869e-01   1.8149146e-04
  9.2988914e-01   3.6495397e-04
 -5.4566596e-02   4.7981692e-04
 -1.3408728e+00   2.5162176e-04
 -3.4601153e-03   1.0478129e-03
  2.0349240e+00   6.5622233e-05
 -1.3533266e+00   9.5508137e-04
 -3.5587842e+00   8.8406714e-06
 -3.3274269e+00   1.1717030e-04
 -1.4618415e+00   7.1277573e-06
  1.5047448e+00   5.3959711e-06
 -6.8757989e-02   6.1756163e-04
 -1.8216306e-02   7.6758157e-04
  7.8311652e-01   2.1724610e-04
  3.6850595e-01   1.3340760e-03
 -1.6535660e+00   2.5713802e-04
 -5.4066670e-01   6.4994376e-05
  1.2511162e-01   6.2930112e-04
 -7.8117740e-01   2.6685893e-04
  1.0823105e-02   8.5913530e-04
 -6.8361022e-02   7.5120112e-04
  2.7304778e-01   2.4077146e-04
 -1.4631812e-01   1.6743512e-04
 -1.5932544e+00   5.1723508e-04
  8.8205659e-01   9.2431536e-04
 -1.7928742e+00   6.5240928e-04
  2.0250878e+00   1.4321326e-04
 -6.7835100e-02   5.4214051e-04
 -3.7282060e-03   1.1436981e-03
 -3.3847940e-01   8.6166331e-04
  8.3294916e-01   4.6228203e-03
 -8.9802526e-02   1.2557982e-03
  1.2689328e+00   4.6216862e-04
  9.5732613e-03   1.6325623e-04
 -1.5007430e+00   1.2887031e-03
 -3.4461226e-03   2.7731812e-04
 -5.9718114e-01   2.3454726e-03
  4.7285184e-03   1.4695914e-03
  2.2107936e-03   2.3785299e-03
 -8.2309972e-03   1.4038568e-03
 -3.8832808e-03   1.7423365e-03
 -7.8975451e-01   6.0781796e-05
 -4.8478693e-02   8.8092685e-04
  4.4429018e-03   1.5493213e-03
  1.7429888e-02   1.3426106e-03
 -1.3417192e-01   1.4892332e-03
  8.0779858e-04   1.1767417e-03
 -1.8640014e-03   2.0204037e-03
 -7.0487019e-03   8.3198294e-04
  3.9865684e-02   3.6702571e-03
 -3.6392005e-03   4.6365059e-04
 -1.7954284e-02   9.7040436e-04
  8.5087735e-03   1.0678327e-03
 -3.9713322e-03   4.7769814e-04
 -2.0065033e-03   1.4065694e-03
 -1.7895982e-01   9.3001331e-04
  1.3987163e-02   8.6749368e-04
 -9.5762042e-03   1.2284899e-03
 -1.2950431e-02   2.8617545e-03
 -4.6889787e-03   9.5448090e-04
 -9.4569325e-01   1.5684462e-04
 -8.7528214e-02   3.3912598e-05
  2.6495988e+00   5.5509132e-05
  1.7864064e+00   8.8299457e-05
  2.0479496e+00   2.3232647e-05
 -1.2111343e-01   1.1679574e-04
  2.1442983e+00   4.7261517e-05
 -3.0818731e-01   9.2751684e-04
  2.2566946e-01   2.0752114e-04
  2.1976779e+00   3.2307507e-05
 -7.3568171e-01   3.4862238e-05
 -1.0588465e+00   1.4482281e-04
 -1.1589057e+00   1.2498838e-03
  9.2471592e-02   3.7691245e-04
  3.4342616e+00   6.0225348e-04
  5.7895428e-01   1.2101644e-04
  2.0424306e-02   1.8435340e-04
 -6.7473614e-01   1.6396343e-04
 -1.3840950e+00   1.1455606e-03
  9.9858893e-03   1.2246202e-03
 -1.3860599e+00   1.3578775e-03
  4.6595648e-01   6.1629922e-04
  2.6751919e-02   2.7854628e-06
 -1.0458703e+00   1.3730332e-03
  4.3193016e-02   6.6092424e-04
 -2.0861948e+00   6.8141700e-04
 -1.3748392e+00   5.3544500e-04
 -2.0234289e+00   1.5531335e-04
  3.2747314e+00   2.0381041e-04
  1.2764374e+00   1.1215265e-04
  2.3212674e+00   6.3091029e-05
  4.5502576e-01   1.6734394e-04
  6.8606579e-01   3.4909023e-04
  3.4908366e-01   1.8215030e-04
 -2.9525399e+00   9.1114052e-04
 -2.6785812e+00   1.9180821e-04
  2.5439854e+00   4.1572255e-04
  1.1364094e+00   4.5785739e-04
  2.8610888e-01   1.0744329e-05
 -2.9491428e-01   1.5762533e-05
 -2.1812136e+00   7.8320852e-04
  2.1647455e-01   3.6201789e-05
 -6.3995481e-01   3.8891865e-04
 -2.0536363e+00   3.0959124e-04
 -2.4310045e-01   2.8199991e-04
  2.3195357e+00   2.4909360e-04
 -9.5024449e-01   2.3876734e-04
 -1.7656340e-01   1.1170858e-04
 -3.3912823e+00   7.2012446e-04
  5.4967266e-01   4.8271698e-04
 -2.2774789e+00   2.2868770e-04
 -6.4240612e-02   9.4099785e-04
  3.6501579e+00   2.8498858e-04
 -1.1664175e+00   1.2911338e-04
  1.0798597e+00   2.0156890e-04
 -1.3620266e-01   5.1405246e-04
 -5.6026745e-01   1.4779234e-04
  3.5345907e+00   1.1566571e-04
  1.7782058e-01   3.2445727e-04
  1.2956776e-01   5.1652564e-04
 -1.7944811e-02   2.1099008e-06
  6.5223533e-01   9.4194378e-04
  1.5666041e-01   1.8694867e-04
 -3.3029482e+00   1.2822343e-05
  3.3859278e-03   4.2179989e-04
  6.9559109e-01   1.0390216e-03
  4.3250582e-01   4.3083643e-04
 -1.7988060e+00   7.8368461e-04
  8.8911116e-01   4.0078125e-04
 -1.9105551e-01   4.0066382e-04
 -2.6926073e-01   8.0440506e-05
 -7.5842279e-01   1.6439917e-04
  4.0650737e-02   1.5108894e-04
  2.8739851e+00   2.5406160e-04
  6.1207104e-01   1.1917775e-03
  8.9808416e-01   1.2715521e-03
 -1.7727122e-02   7.0549338e-04
 -5.7728547e-01   1.4590942e-02
 -3.9214236e-01   1.4353766e-03
 -3.2638912e+00   1.3546848e-03
  2.2985093e-01   2.4496348e-04
 -5.1585726e-02   1.4701738e-03
  6.4912111e-01   1.4438480e-03
  3.9697030e-01   1.0042443e-03
 -2.8395901e+00   7.6713593e-04
 -8.5696024e-01   1.9739096e-03
  4.7641536e-03   2.5210246e-03
  1.4128087e+00   1.7793750e-03
 -6.2203532e-01   1.5235838e-04
 -1.6399550e+00   1.6588606e-04
  1.2639806e-03   2.9462129e-03
  4.1892525e-02   1.2428439e-03
  9.9808793e-04   8.4185728e-04
 -1.1874570e-02   1.4138338e-03
  4.6223486e-03   1.5532792e-03
  2.6281597e-03   2.7160970e-03
  3.0134765e-03   6.6675252e-04
  3.0273548e-03   1.9219388e-03
  3.1794675e-02   1.1114599e-04
  1.6952768e-02   2.7852827e-03
 -5.9298296e-03   1.3476367e-03
  7.1999924e-03   2.9948296e-03
  2.8034803e-04   2.7782901e-03
  1.8763253e-04   1.5719780e-03
  4.8773712e-03   1.2374577e-03
  9.6672438e-03   2.5191279e-03
 -1.0426921e-02   6.3003949e-04
 -8.6376391e-02   1.2548668e-04
  2.0697124e-01   5.5402597e-06
  6.3879922e-02   2.6852154e-04
 -1.3406751e-01   2.4012045e-04
 -1.0235391e+00   3.7620298e-04
 -7.3929119e-04   3.7290025e-04
 -2.9787288e+00   1.6013284e-04
  7.6048989e-03   3.4562271e-04
  1.1421576e-01   2.2572171e-05
  7.6728028e-01   5.2996835e-04
 -2.4367446e-01   8.3813349e-05
 -2.2778783e+00   1.6505005e-03
 -3.6198252e-01   6.2871363e-04
  9.7893083e-01   7.6421449e-04
  1.7652729e+00   1.9206358e-03
  2.1509256e+00   7.2631810e-04
  2.5357885e+00   7.4972381e-04
 -3.2702091e-01   1.3376850e-04
 -1.7564991e+00   9.7645592e-05
 -8.3099157e-01   1.5183964e-03
  3.4122558e+00   8.9985755e-04
  2.0492220e+00   9.5782592e-04
  6.5604264e-01   1.4028590e-03
 -8.1735896e-03   1.5253176e-03
 -2.8799050e-02   1.7631787e-03
 -3.8595636e+00   4.7814719e-06
  1.2461859e-01   1.5428662e-03
  3.5833821e+00   9.1886712e-04
 -2.4833301e-01   2.8038496e-04
  3.5575639e-02   1.0227012e-03
  1.7449062e+00   1.5438968e-07
 -3.1323731e+00   1.5008681e-04
  7.1218872e-01   3.5493920e-04
  1.2451082e+00   3.3658594e-04
  3.8032460e-01   5.6575186e-04
 -1.1470433e-01   5.6139415e-04
 -1.1944669e+00   2.9943312e-05
  1.1368891e+00   1.3494371e-03
 -1.7824476e+00   9.5791026e-04
  2.9437995e+00   7.0558075e-05
 -1.6108787e-02   7.1080402e-05
 -4.2284966e-01   1.1520092e-04
  2.3472887e-02   3.7492593e-04
  4.9685842e-01   3.4072180e-04
 -1.2209948e+00   2.9234594e-04
  3.8727179e-02   2.7945685e-05
  1.3438925e+00   5.7736911e-06
  1.0473045e+00   1.2906222e-04
  8.7568659e-01   4.0438128e-04
 -6.6603160e-01   4.7384846e-04
  9.3988955e-02   1.4517749e-04
  1.6196501e+00   7.8819692e-04
  2.0175192e+00   3.3929723e-04
  1.2462608e-01   8.6152388e-05
  1.9677635e+00   1.1696519e-03
 -2.5877001e-02   2.4537285e-04
 -9.8018724e-01   2.7764178e-04
 -3.8259254e+00   1.3077578e-04
 -3.1271023e-01   3.1040916e-05
 -1.4344412e+00   5.8520591e-04
  1.2058508e-01   4.8999089e-05
  1.1999743e-02   8.6891314e-04
  5.6013918e-01   1.9396115e-04
 -7.1660966e-01   2.0457091e-04
 -2.3935696e-01   2.9714193e-04
  5.2560017e-02   5.1156821e-04
 -1.9524814e+00   4.2931677e-04
  1.7013295e+00   5.1906490e-04
  1.8877529e-01   7.9393503e-04
 -6.9483644e-01   5.3121656e-04
  4.6344203e-01   1.5441175e-03
 -1.0886762e-01   1.5973099e-04
  9.9286956e-01   7.7838759e-04
  6.9599640e-01   4.1043528e-04
 -2.2327080e-02   1.0424030e-03
  2.0491609e-01   4.3624535e-04
  7.8704482e-01   5.8588083e-04
 -3.2430196e-01   1.1055355e-02
  4.3456916e-02   4.5037438e-04
  1.3089573e+00   3.4568852e-04
 -3.9943746e-01   5.2666076e-04