
***************************************************************
*                 Welcome to use GPUMD                        *
*    (Graphics Processing Units Molecular Dynamics)           *
*              Master version after 3.9.5                     *
*              This is the nep executable                     *
***************************************************************


---------------------------------------------------------------
GPU information:
---------------------------------------------------------------

number of GPUs = 1
Device id:                   0
    Device name:             NVIDIA A100-SXM4-80GB
    Compute capability:      8.0
    Amount of global memory: 79.2517 GB
    Number of SMs:           108

---------------------------------------------------------------
Started running nep.
---------------------------------------------------------------


---------------------------------------------------------------
Started reading nep.in.
---------------------------------------------------------------

Input or default parameters:
    (default) model_type = potential.
    (default) calculation mode = train.
    (default) use NEP version 4.
    (input)   number of atom types = 1.
        (default) type 0 (C with Z = 6) has force weight of 1.
    (default) will not add the ZBL potential.
    (input)   radial cutoff = 4.2 A.
    (input)   angular cutoff = 3.7 A.
    (default) use global cutoff for NEP.
    (default) use global cutoff for ZBL.
    (input)   n_max_radial = 10.
    (input)   n_max_angular = 15.
    (input)   basis_size_radial = 10.
    (input)   basis_size_angular = 15.
    (input)   l_max_3body = 4.
    (input)   l_max_4body = 2.
    (input)   l_max_5body = 1.
    (input)   number of neurons = 100.
    (input)   lambda_1 = 0.05.
    (input)   lambda_2 = 0.05.
    (input)   lambda_e = 1.
    (input)   lambda_f = 1.
    (input)   lambda_v = 0.1.
    (default) lambda_shear = 1.
    (default) force_delta = 0.
    (input)   batch size = 100000.
    (input)   population size = 50.
    (input)   maximum number of generations = 500000.
Some calculated parameters:
    number of radial descriptor components = 11.
    number of angular descriptor components = 96.
    total number of descriptor components = 107.
    NN architecture = 107-100-1.
    number of NN parameters to be optimized = 10901.
    number of descriptor parameters to be optimized = 377.
    total number of parameters to be optimized = 11278.

---------------------------------------------------------------
Finished reading nep.in.
---------------------------------------------------------------


---------------------------------------------------------------
Started reading train.xyz
---------------------------------------------------------------

Number of configurations = 6738.
Number of devices = 1
Number of batches = 1
Hello, I changed the batch_size from 100000 to 6738.

Batch 0:
Number of configurations = 6738.

---------------------------------------------------------------
Constructing train_set in device  0.
Total number of atoms = 379404.
Number of atoms in the largest configuration = 512.
Number of configurations having virial = 6018.
Radial descriptor with a cutoff of 4.2 A:
    Minimum number of neighbors for one atom = 0.
    Maximum number of neighbors for one atom = 98.
Angular descriptor with a cutoff of 3.7 A:
    Minimum number of neighbors for one atom = 0.
    Maximum number of neighbors for one atom = 56.
---------------------------------------------------------------


---------------------------------------------------------------
Started reading test.xyz
---------------------------------------------------------------

Number of configurations = 450.

---------------------------------------------------------------
Constructing test_set in device  0.
Total number of atoms = 28337.
Number of atoms in the largest configuration = 216.
Number of configurations having virial = 450.
Radial descriptor with a cutoff of 4.2 A:
    Minimum number of neighbors for one atom = 5.
    Maximum number of neighbors for one atom = 78.
Angular descriptor with a cutoff of 3.7 A:
    Minimum number of neighbors for one atom = 4.
    Maximum number of neighbors for one atom = 46.
---------------------------------------------------------------


---------------------------------------------------------------
Time used for initialization = 2.217768 s.
---------------------------------------------------------------


---------------------------------------------------------------
Started training.
---------------------------------------------------------------

Step    Total-Loss L1Reg-Loss L2Reg-Loss RMSE-E-Train RMSE-F-Train RMSE-V-Train RMSE-E-Test  RMSE-F-Test  RMSE-V-Test  
100     0.72149    0.03350    0.05912    0.03116      0.58946      0.08250      0.04010      0.67310      0.08525      
200     0.72148    0.03350    0.05911    0.03117      0.58944      0.08255      0.04011      0.67310      0.08523      
300     0.72148    0.03350    0.05911    0.03113      0.58950      0.08232      0.04005      0.67313      0.08488      
400     0.72147    0.03351    0.05912    0.03117      0.58946      0.08220      0.04008      0.67311      0.08466      
500     0.72146    0.03350    0.05911    0.03115      0.58948      0.08226      0.04004      0.67310      0.08479      
600     0.72146    0.03349    0.05911    0.03106      0.58959      0.08216      0.03993      0.67324      0.08484      
700     0.72144    0.03349    0.05911    0.03113      0.58950      0.08213      0.04005      0.67314      0.08470      
800     0.72143    0.03349    0.05910    0.03114      0.58947      0.08232      0.04005      0.67311      0.08502      
900     0.72143    0.03349    0.05910    0.03111      0.58948      0.08247      0.03999      0.67311      0.08526      
1000    0.72142    0.03349    0.05910    0.03114      0.58948      0.08210      0.04005      0.67312      0.08478      
1100    0.72141    0.03348    0.05910    0.03114      0.58943      0.08258      0.04006      0.67306      0.08555      
1200    0.72140    0.03348    0.05910    0.03110      0.58950      0.08223      0.03999      0.67314      0.08492      
1300    0.72140    0.03349    0.05910    0.03113      0.58947      0.08217      0.04006      0.67311      0.08497      
1400    0.72139    0.03348    0.05910    0.03116      0.58944      0.08212      0.04006      0.67308      0.08478      
1500    0.72137    0.03347    0.05909    0.03109      0.58950      0.08221      0.03997      0.67317      0.08491      
1600    0.72137    0.03347    0.05909    0.03114      0.58944      0.08218      0.04003      0.67308      0.08494      
1700    0.72136    0.03347    0.05909    0.03115      0.58940      0.08249      0.04006      0.67305      0.08540      
1800    0.72135    0.03347    0.05908    0.03113      0.58943      0.08236      0.04004      0.67303      0.08519      
1900    0.72134    0.03346    0.05908    0.03118      0.58939      0.08226      0.04009      0.67299      0.08504      
2000    0.72133    0.03345    0.05908    0.03119      0.58939      0.08219      0.04008      0.67295      0.08491      
2100    0.72132    0.03346    0.05908    0.03116      0.58941      0.08224      0.04005      0.67298      0.08491      
2200    0.72132    0.03346    0.05908    0.03114      0.58944      0.08203      0.04004      0.67303      0.08466      
2300    0.72132    0.03346    0.05908    0.03115      0.58940      0.08231      0.04006      0.67298      0.08507      
2400    0.72132    0.03346    0.05907    0.03114      0.58944      0.08212      0.04006      0.67301      0.08457      
2500    0.72131    0.03346    0.05907    0.03115      0.58940      0.08226      0.04004      0.67300      0.08493      
2600    0.72130    0.03345    0.05907    0.03120      0.58936      0.08208      0.04011      0.67296      0.08472      
2700    0.72129    0.03345    0.05907    0.03115      0.58938      0.08231      0.04007      0.67299      0.08508      
2800    0.72128    0.03345    0.05906    0.03114      0.58939      0.08233      0.04005      0.67298      0.08498      
2900    0.72127    0.03344    0.05906    0.03115      0.58939      0.08228      0.04004      0.67300      0.08488      
3000    0.72126    0.03344    0.05906    0.03114      0.58940      0.08215      0.04002      0.67303      0.08476      
3100    0.72126    0.03344    0.05906    0.03111      0.58943      0.08222      0.04001      0.67301      0.08470      
3200    0.72124    0.03344    0.05905    0.03113      0.58941      0.08209      0.04003      0.67303      0.08461      
3300    0.72123    0.03344    0.05905    0.03111      0.58939      0.08239      0.04002      0.67300      0.08503      
3400    0.72122    0.03343    0.05905    0.03113      0.58938      0.08221      0.04006      0.67304      0.08468      
3500    0.72121    0.03343    0.05905    0.03112      0.58939      0.08231      0.04003      0.67302      0.08490      
3600    0.72121    0.03343    0.05905    0.03110      0.58940      0.08231      0.04001      0.67300      0.08485      
3700    0.72121    0.03343    0.05904    0.03114      0.58935      0.08242      0.04006      0.67297      0.08503      
3800    0.72120    0.03343    0.05904    0.03115      0.58936      0.08220      0.04004      0.67300      0.08471      
3900    0.72119    0.03343    0.05904    0.03117      0.58934      0.08208      0.04007      0.67298      0.08460      
4000    0.72118    0.03342    0.05904    0.03119      0.58929      0.08241      0.04010      0.67295      0.08500      
4100    0.72117    0.03342    0.05903    0.03118      0.58931      0.08235      0.04008      0.67296      0.08498      
4200    0.72116    0.03342    0.05903    0.03115      0.58933      0.08230      0.04006      0.67302      0.08497      
4300    0.72115    0.03341    0.05903    0.03111      0.58937      0.08234      0.04000      0.67310      0.08499      
4400    0.72114    0.03341    0.05903    0.03112      0.58934      0.08240      0.04003      0.67302      0.08511      
4500    0.72113    0.03340    0.05902    0.03112      0.58933      0.08261      0.04000      0.67301      0.08534      
4600    0.72112    0.03340    0.05902    0.03114      0.58932      0.08241      0.04004      0.67299      0.08520      
4700    0.72111    0.03339    0.05902    0.03116      0.58931      0.08233      0.04006      0.67295      0.08507      
4800    0.72110    0.03339    0.05902    0.03114      0.58931      0.08248      0.04002      0.67297      0.08529      
4900    0.72109    0.03338    0.05901    0.03114      0.58932      0.08227      0.04003      0.67297      0.08487      
5000    0.72108    0.03338    0.05901    0.03114      0.58931      0.08242      0.04002      0.67295      0.08505      
5100    0.72107    0.03338    0.05901    0.03114      0.58932      0.08220      0.04003      0.67297      0.08473      
5200    0.72106    0.03338    0.05901    0.03115      0.58931      0.08215      0.04005      0.67299      0.08459      
5300    0.72106    0.03337    0.05901    0.03114      0.58929      0.08252      0.04003      0.67296      0.08531      
5400    0.72104    0.03337    0.05901    0.03113      0.58931      0.08219      0.04004      0.67298      0.08476      
5500    0.72104    0.03337    0.05901    0.03114      0.58930      0.08216      0.04001      0.67296      0.08485      
5600    0.72103    0.03336    0.05900    0.03110      0.58933      0.08229      0.04001      0.67302      0.08499      
5700    0.72102    0.03337    0.05900    0.03112      0.58930      0.08238      0.04001      0.67296      0.08517      
5800    0.72101    0.03336    0.05900    0.03112      0.58931      0.08220      0.04003      0.67303      0.08480      
5900    0.72100    0.03335    0.05899    0.03114      0.58930      0.08215      0.04005      0.67300      0.08479      
6000    0.72100    0.03336    0.05899    0.03115      0.58926      0.08234      0.04003      0.67292      0.08507      
6100    0.72099    0.03336    0.05899    0.03111      0.58929      0.08235      0.03999      0.67299      0.08497      
6200    0.72098    0.03335    0.05898    0.03116      0.58927      0.08219      0.04006      0.67296      0.08477      
6300    0.72097    0.03335    0.05898    0.03112      0.58927      0.08253      0.04003      0.67292      0.08511      
6400    0.72097    0.03335    0.05898    0.03110      0.58932      0.08211      0.03998      0.67296      0.08474      
6500    0.72096    0.03335    0.05897    0.03111      0.58933      0.08207      0.04001      0.67299      0.08464      
6600    0.72095    0.03335    0.05897    0.03110      0.58930      0.08224      0.04001      0.67295      0.08481      
6700    0.72094    0.03335    0.05897    0.03114      0.58927      0.08218      0.04004      0.67292      0.08469      
6800    0.72093    0.03334    0.05897    0.03111      0.58929      0.08218      0.04001      0.67298      0.08470      
6900    0.72093    0.03334    0.05897    0.03113      0.58927      0.08223      0.04003      0.67293      0.08487      
7000    0.72092    0.03334    0.05897    0.03113      0.58927      0.08224      0.04005      0.67291      0.08486      
7100    0.72091    0.03333    0.05896    0.03115      0.58923      0.08232      0.04006      0.67288      0.08494      
7200    0.72090    0.03334    0.05896    0.03112      0.58927      0.08217      0.04000      0.67293      0.08473      
7300    0.72090    0.03333    0.05896    0.03114      0.58925      0.08219      0.04005      0.67293      0.08484      
7400    0.72089    0.03332    0.05896    0.03114      0.58925      0.08218      0.04003      0.67295      0.08484      
7500    0.72087    0.03332    0.05896    0.03111      0.58929      0.08199      0.03998      0.67300      0.08458      
7600    0.72086    0.03332    0.05895    0.03114      0.58924      0.08219      0.04005      0.67295      0.08482      
7700    0.72086    0.03332    0.05895    0.03116      0.58922      0.08211      0.04005      0.67290      0.08494      
7800    0.72085    0.03331    0.05895    0.03114      0.58924      0.08215      0.04003      0.67295      0.08477      
7900    0.72084    0.03331    0.05894    0.03112      0.58923      0.08242      0.04000      0.67295      0.08509      
8000    0.72083    0.03331    0.05894    0.03113      0.58924      0.08211      0.04003      0.67296      0.08468      
8100    0.72082    0.03330    0.05894    0.03112      0.58926      0.08203      0.04001      0.67296      0.08468      
8200    0.72081    0.03330    0.05893    0.03112      0.58925      0.08211      0.04002      0.67297      0.08470      
8300    0.72081    0.03330    0.05893    0.03111      0.58926      0.08215      0.04000      0.67299      0.08473      
8400    0.72080    0.03329    0.05893    0.03114      0.58923      0.08208      0.04005      0.67296      0.08467      
8500    0.72079    0.03329    0.05893    0.03113      0.58923      0.08215      0.04002      0.67294      0.08478      
8600    0.72078    0.03329    0.05892    0.03115      0.58921      0.08213      0.04005      0.67293      0.08480      
8700    0.72077    0.03329    0.05892    0.03112      0.58925      0.08200      0.04002      0.67295      0.08450      
8800    0.72077    0.03329    0.05892    0.03111      0.58925      0.08207      0.04000      0.67297      0.08457      
8900    0.72076    0.03328    0.05892    0.03111      0.58922      0.08231      0.03999      0.67291      0.08508      
9000    0.72075    0.03328    0.05892    0.03114      0.58918      0.08240      0.04001      0.67288      0.08505      
9100    0.72075    0.03328    0.05891    0.03111      0.58923      0.08221      0.03999      0.67295      0.08479      
9200    0.72074    0.03328    0.05891    0.03109      0.58924      0.08209      0.03997      0.67293      0.08457      
9300    0.72073    0.03328    0.05891    0.03111      0.58921      0.08224      0.03998      0.67292      0.08481      
9400    0.72072    0.03328    0.05891    0.03109      0.58921      0.08234      0.03997      0.67293      0.08503      
9500    0.72071    0.03327    0.05890    0.03112      0.58919      0.08226      0.04000      0.67288      0.08484      
9600    0.72071    0.03327    0.05890    0.03107      0.58924      0.08226      0.03994      0.67295      0.08485      
9700    0.72070    0.03327    0.05890    0.03112      0.58921      0.08206      0.03999      0.67292      0.08466      
9800    0.72069    0.03327    0.05890    0.03108      0.58922      0.08218      0.03996      0.67292      0.08486      
9900    0.72068    0.03327    0.05890    0.03111      0.58918      0.08229      0.04000      0.67284      0.08492      
10000   0.72068    0.03327    0.05889    0.03105      0.58924      0.08223      0.03992      0.67296      0.08503      
10100   0.72067    0.03326    0.05889    0.03110      0.58920      0.08219      0.04000      0.67292      0.08482      
10200   0.72065    0.03326    0.05889    0.03113      0.58917      0.08209      0.04003      0.67291      0.08470      
10300   0.72065    0.03326    0.05889    0.03111      0.58920      0.08205      0.04001      0.67292      0.08475      
10400   0.72064    0.03325    0.05888    0.03116      0.58912      0.08225      0.04006      0.67283      0.08495      
10500   0.72063    0.03325    0.05888    0.03111      0.58918      0.08215      0.03998      0.67291      0.08469      
10600   0.72062    0.03325    0.05888    0.03113      0.58915      0.08216      0.04001      0.67285      0.08476      
10700   0.72062    0.03325    0.05888    0.03111      0.58915      0.08234      0.03998      0.67284      0.08503      
10800   0.72060    0.03325    0.05887    0.03108      0.58919      0.08210      0.03997      0.67291      0.08464      
10900   0.72060    0.03325    0.05887    0.03109      0.58919      0.08207      0.03995      0.67292      0.08467      
11000   0.72059    0.03325    0.05887    0.03110      0.58915      0.08221      0.04000      0.67291      0.08480      
11100   0.72058    0.03325    0.05887    0.03107      0.58917      0.08228      0.03993      0.67289      0.08505      
11200   0.72057    0.03324    0.05886    0.03109      0.58918      0.08194      0.03996      0.67286      0.08456      
11300   0.72056    0.03324    0.05886    0.03109      0.58917      0.08196      0.03995      0.67284      0.08459      
11400   0.72055    0.03323    0.05886    0.03109      0.58916      0.08211      0.03997      0.67284      0.08488      
11500   0.72055    0.03323    0.05886    0.03110      0.58914      0.08219      0.03999      0.67282      0.08494      
11600   0.72053    0.03323    0.05885    0.03112      0.58913      0.08199      0.04001      0.67284      0.08470      
11700   0.72053    0.03323    0.05885    0.03109      0.58915      0.08213      0.03995      0.67286      0.08481      
11800   0.72052    0.03322    0.05885    0.03112      0.58913      0.08198      0.03999      0.67285      0.08467      
11900   0.72052    0.03323    0.05885    0.03107      0.58916      0.08210      0.03994      0.67290      0.08470      
12000   0.72051    0.03322    0.05884    0.03106      0.58915      0.08236      0.03993      0.67287      0.08521      
12100   0.72050    0.03322    0.05884    0.03106      0.58915      0.08220      0.03993      0.67287      0.08489      
12200   0.72050    0.03322    0.05884    0.03111      0.58911      0.08209      0.03998      0.67283      0.08467      
12300   0.72049    0.03322    0.05884    0.03110      0.58910      0.08226      0.03996      0.67283      0.08503      
12400   0.72048    0.03322    0.05883    0.03108      0.58915      0.08200      0.03994      0.67292      0.08473      
12500   0.72047    0.03322    0.05883    0.03113      0.58906      0.08223      0.04001      0.67279      0.08505      
12600   0.72046    0.03321    0.05883    0.03112      0.58907      0.08235      0.03998      0.67279      0.08523      
12700   0.72045    0.03321    0.05883    0.03110      0.58909      0.08226      0.03998      0.67282      0.08518      
12800   0.72044    0.03320    0.05882    0.03112      0.58909      0.08204      0.04000      0.67282      0.08470      
12900   0.72044    0.03320    0.05882    0.03106      0.58915      0.08208      0.03995      0.67289      0.08481      
13000   0.72043    0.03319    0.05881    0.03111      0.58911      0.08201      0.03999      0.67286      0.08475      
13100   0.72042    0.03319    0.05881    0.03112      0.58909      0.08208      0.03998      0.67278      0.08484      
13200   0.72042    0.03319    0.05881    0.03109      0.58908      0.08247      0.03995      0.67280      0.08532      
13300   0.72040    0.03319    0.05881    0.03106      0.58913      0.08217      0.03992      0.67288      0.08497      
13400   0.72039    0.03319    0.05880    0.03111      0.58909      0.08204      0.04000      0.67281      0.08472      
13500   0.72038    0.03318    0.05880    0.03111      0.58906      0.08231      0.04000      0.67278      0.08506      
13600   0.72037    0.03318    0.05880    0.03109      0.58906      0.08236      0.03998      0.67280      0.08521      
13700   0.72037    0.03317    0.05880    0.03111      0.58907      0.08210      0.04001      0.67280      0.08483      
13800   0.72036    0.03317    0.05880    0.03111      0.58906      0.08223      0.04000      0.67274      0.08501      
13900   0.72035    0.03317    0.05879    0.03109      0.58910      0.08199      0.03996      0.67284      0.08481      
14000   0.72034    0.03316    0.05879    0.03107      0.58907      0.08243      0.03992      0.67282      0.08538      
14100   0.72033    0.03316    0.05879    0.03110      0.58908      0.08199      0.03997      0.67281      0.08481      
14200   0.72032    0.03315    0.05878    0.03107      0.58910      0.08221      0.03995      0.67283      0.08505      
14300   0.72031    0.03315    0.05878    0.03110      0.58905      0.08224      0.04000      0.67279      0.08513      
14400   0.72030    0.03315    0.05878    0.03105      0.58913      0.08196      0.03994      0.67290      0.08467      
14500   0.72029    0.03315    0.05877    0.03108      0.58908      0.08216      0.03995      0.67285      0.08486      
14600   0.72028    0.03315    0.05877    0.03112      0.58903      0.08217      0.03999      0.67279      0.08495      
14700   0.72027    0.03314    0.05877    0.03108      0.58906      0.08219      0.03995      0.67281      0.08496      
14800   0.72027    0.03314    0.05877    0.03112      0.58900      0.08238      0.04000      0.67276      0.08532      
14900   0.72026    0.03314    0.05877    0.03109      0.58904      0.08222      0.03996      0.67281      0.08509      
15000   0.72025    0.03314    0.05877    0.03108      0.58905      0.08217      0.03993      0.67280      0.08494      
15100   0.72024    0.03314    0.05877    0.03110      0.58903      0.08214      0.03998      0.67275      0.08495      
15200   0.72023    0.03313    0.05876    0.03107      0.58903      0.08240      0.03994      0.67277      0.08529      
15300   0.72023    0.03313    0.05876    0.03111      0.58902      0.08204      0.04000      0.67278      0.08484      
15400   0.72022    0.03313    0.05876    0.03109      0.58902      0.08223      0.03998      0.67274      0.08501      
15500   0.72021    0.03313    0.05876    0.03105      0.58905      0.08226      0.03991      0.67280      0.08514      
15600   0.72020    0.03311    0.05875    0.03108      0.58903      0.08218      0.03995      0.67276      0.08508      
15700   0.72019    0.03312    0.05875    0.03107      0.58904      0.08210      0.03996      0.67280      0.08491      
15800   0.72018    0.03311    0.05875    0.03107      0.58905      0.08198      0.03994      0.67283      0.08470      
15900   0.72017    0.03311    0.05875    0.03107      0.58904      0.08208      0.03997      0.67281      0.08471      
16000   0.72016    0.03310    0.05874    0.03112      0.58900      0.08197      0.04000      0.67271      0.08473      
16100   0.72015    0.03310    0.05874    0.03106      0.58901      0.08236      0.03992      0.67278      0.08536      
16200   0.72014    0.03309    0.05874    0.03109      0.58899      0.08241      0.03996      0.67269      0.08523      
16300   0.72014    0.03309    0.05873    0.03107      0.58904      0.08199      0.03992      0.67278      0.08457      
16400   0.72013    0.03309    0.05873    0.03105      0.58905      0.08205      0.03993      0.67275      0.08475      
16500   0.72013    0.03309    0.05873    0.03105      0.58906      0.08190      0.03995      0.67279      0.08449      
16600   0.72012    0.03310    0.05873    0.03105      0.58905      0.08196      0.03992      0.67278      0.08455      
16700   0.72011    0.03309    0.05873    0.03105      0.58905      0.08189      0.03994      0.67279      0.08453      
16800   0.72010    0.03309    0.05873    0.03103      0.58907      0.08195      0.03991      0.67283      0.08457      
16900   0.72009    0.03308    0.05872    0.03106      0.58904      0.08193      0.03993      0.67279      0.08462      
17000   0.72009    0.03308    0.05872    0.03107      0.58900      0.08217      0.03992      0.67274      0.08496      
17100   0.72008    0.03308    0.05872    0.03109      0.58899      0.08200      0.03995      0.67271      0.08467      
17200   0.72007    0.03307    0.05872    0.03108      0.58900      0.08197      0.03997      0.67277      0.08457      
17300   0.72006    0.03308    0.05872    0.03106      0.58900      0.08216      0.03994      0.67272      0.08499      
17400   0.72006    0.03307    0.05871    0.03107      0.58901      0.08197      0.03995      0.67274      0.08464      
17500   0.72005    0.03307    0.05871    0.03106      0.58900      0.08205      0.03997      0.67270      0.08475      
17600   0.72004    0.03306    0.05871    0.03109      0.58895      0.08226      0.03995      0.67267      0.08509      
17700   0.72002    0.03306    0.05871    0.03109      0.58896      0.08204      0.03995      0.67269      0.08486      
17800   0.72002    0.03306    0.05870    0.03108      0.58896      0.08218      0.03997      0.67268      0.08494      
17900   0.72002    0.03306    0.05870    0.03110      0.58897      0.08197      0.03998      0.67268      0.08475      
18000   0.72001    0.03306    0.05870    0.03108      0.58897      0.08199      0.03996      0.67272      0.08481      
18100   0.72000    0.03306    0.05869    0.03112      0.58892      0.08212      0.04000      0.67264      0.08505      
18200   0.72000    0.03305    0.05869    0.03107      0.58900      0.08192      0.03995      0.67275      0.08468      
18300   0.71999    0.03305    0.05869    0.03105      0.58898      0.08212      0.03993      0.67275      0.08505      
18400   0.71998    0.03306    0.05869    0.03110      0.58895      0.08193      0.04000      0.67270      0.08479      
18500   0.71998    0.03306    0.05868    0.03109      0.58896      0.08188      0.03998      0.67272      0.08467      
18600   0.71996    0.03305    0.05868    0.03108      0.58895      0.08191      0.03997      0.67271      0.08463      
18700   0.71996    0.03305    0.05868    0.03112      0.58889      0.08219      0.04003      0.67263      0.08501      
18800   0.71995    0.03305    0.05868    0.03108      0.58896      0.08181      0.03998      0.67274      0.08462      
18900   0.71994    0.03304    0.05867    0.03108      0.58896      0.08186      0.03999      0.67270      0.08456      
19000   0.71994    0.03305    0.05867    0.03106      0.58897      0.08195      0.03994      0.67274      0.08472      
19100   0.71992    0.03303    0.05867    0.03108      0.58892      0.08215      0.03998      0.67270      0.08502      
19200   0.71992    0.03303    0.05867    0.03112      0.58889      0.08206      0.04002      0.67266      0.08502      
19300   0.71991    0.03302    0.05867    0.03110      0.58893      0.08191      0.03999      0.67269      0.08472      
19400   0.71990    0.03302    0.05866    0.03108      0.58896      0.08173      0.03996      0.67274      0.08453      
19500   0.71989    0.03302    0.05866    0.03108      0.58892      0.08206      0.03996      0.67269      0.08491      
19600   0.71988    0.03302    0.05866    0.03106      0.58894      0.08191      0.03994      0.67272      0.08457      
19700   0.71988    0.03302    0.05866    0.03106      0.58895      0.08176      0.03995      0.67275      0.08440      
19800   0.71987    0.03302    0.05866    0.03107      0.58889      0.08226      0.03996      0.67265      0.08523      
19900   0.71986    0.03302    0.05866    0.03108      0.58890      0.08206      0.03997      0.67266      0.08485      
20000   0.71985    0.03301    0.05865    0.03106      0.58894      0.08192      0.03994      0.67269      0.08459      
20100   0.71984    0.03301    0.05865    0.03106      0.58893      0.08201      0.03993      0.67267      0.08478      
20200   0.71983    0.03300    0.05864    0.03110      0.58889      0.08189      0.03999      0.67266      0.08457      
20300   0.71983    0.03300    0.05864    0.03108      0.58888      0.08217      0.03995      0.67262      0.08502      
20400   0.71981    0.03300    0.05864    0.03109      0.58887      0.08223      0.03995      0.67261      0.08503      
20500   0.71980    0.03299    0.05864    0.03107      0.58890      0.08203      0.03995      0.67265      0.08477      
20600   0.71980    0.03299    0.05864    0.03107      0.58890      0.08199      0.03996      0.67266      0.08481      
20700   0.71979    0.03299    0.05863    0.03108      0.58891      0.08187      0.03995      0.67266      0.08454      
20800   0.71979    0.03299    0.05863    0.03110      0.58886      0.08206      0.04000      0.67264      0.08481      
20900   0.71978    0.03298    0.05863    0.03107      0.58889      0.08208      0.03994      0.67266      0.08479      
21000   0.71978    0.03298    0.05863    0.03108      0.58886      0.08224      0.03997      0.67263      0.08510      
21100   0.71977    0.03298    0.05862    0.03108      0.58888      0.08203      0.03996      0.67265      0.08474      
21200   0.71977    0.03298    0.05862    0.03107      0.58887      0.08227      0.03996      0.67264      0.08506      
21300   0.71975    0.03297    0.05862    0.03113      0.58883      0.08213      0.04001      0.67257      0.08490      
21400   0.71975    0.03297    0.05862    0.03108      0.58888      0.08193      0.03995      0.67262      0.08464      
21500   0.71973    0.03297    0.05862    0.03108      0.58885      0.08222      0.03998      0.67263      0.08502      
21600   0.71973    0.03297    0.05861    0.03107      0.58887      0.08203      0.03994      0.67266      0.08478      
21700   0.71972    0.03297    0.05861    0.03106      0.58890      0.08181      0.03993      0.67271      0.08445      
21800   0.71972    0.03297    0.05861    0.03106      0.58888      0.08206      0.03995      0.67267      0.08480      
21900   0.71971    0.03296    0.05861    0.03108      0.58887      0.08187      0.03997      0.67266      0.08449      
22000   0.71970    0.03296    0.05861    0.03105      0.58887      0.08218      0.03991      0.67266      0.08497      
22100   0.71969    0.03296    0.05860    0.03103      0.58889      0.08211      0.03991      0.67267      0.08492      
22200   0.71968    0.03295    0.05860    0.03105      0.58887      0.08208      0.03994      0.67264      0.08484      
22300   0.71968    0.03295    0.05860    0.03104      0.58892      0.08176      0.03990      0.67273      0.08445      
22400   0.71967    0.03295    0.05859    0.03108      0.58884      0.08207      0.03997      0.67261      0.08491      
22500   0.71966    0.03295    0.05859    0.03110      0.58882      0.08199      0.03999      0.67261      0.08478      
22600   0.71966    0.03295    0.05859    0.03106      0.58886      0.08189      0.03993      0.67266      0.08458      
22700   0.71965    0.03295    0.05859    0.03111      0.58880      0.08202      0.04000      0.67255      0.08489      
22800   0.71964    0.03294    0.05859    0.03110      0.58882      0.08191      0.04001      0.67256      0.08473      
22900   0.71963    0.03294    0.05859    0.03105      0.58885      0.08200      0.03991      0.67258      0.08475      
23000   0.71962    0.03295    0.05859    0.03108      0.58881      0.08197      0.03995      0.67255      0.08474      
23100   0.71961    0.03294    0.05858    0.03108      0.58882      0.08187      0.03995      0.67256      0.08464      
23200   0.71961    0.03294    0.05858    0.03107      0.58883      0.08186      0.03995      0.67259      0.08460      
23300   0.71960    0.03294    0.05858    0.03107      0.58880      0.08198      0.03995      0.67257      0.08480      
23400   0.71959    0.03294    0.05858    0.03109      0.58883      0.08166      0.03998      0.67259      0.08426      
23500   0.71958    0.03293    0.05858    0.03108      0.58883      0.08168      0.03997      0.67260      0.08420      
23600   0.71957    0.03293    0.05857    0.03111      0.58877      0.08188      0.04001      0.67250      0.08460      
23700   0.71956    0.03292    0.05857    0.03111      0.58875      0.08210      0.03998      0.67252      0.08494      
23800   0.71956    0.03292    0.05857    0.03110      0.58881      0.08160      0.03999      0.67258      0.08419      
23900   0.71955    0.03291    0.05856    0.03107      0.58882      0.08181      0.03996      0.67262      0.08452      
24000   0.71954    0.03291    0.05856    0.03108      0.58881      0.08181      0.03994      0.67259      0.08459      
24100   0.71953    0.03291    0.05856    0.03109      0.58877      0.08208      0.03995      0.67255      0.08497      
24200   0.71953    0.03290    0.05856    0.03109      0.58879      0.08190      0.03996      0.67254      0.08472      
24300   0.71952    0.03290    0.05855    0.03107      0.58882      0.08172      0.03994      0.67257      0.08441      
24400   0.71951    0.03290    0.05855    0.03109      0.58877      0.08189      0.03997      0.67253      0.08467      
24500   0.71951    0.03291    0.05855    0.03109      0.58878      0.08186      0.03998      0.67248      0.08455      
24600   0.71950    0.03290    0.05855    0.03111      0.58873      0.08216      0.04002      0.67244      0.08501      
24700   0.71949    0.03289    0.05854    0.03111      0.58878      0.08169      0.04000      0.67248      0.08429      
24800   0.71948    0.03289    0.05854    0.03108      0.58878      0.08192      0.03997      0.67248      0.08465      
24900   0.71948    0.03289    0.05854    0.03108      0.58879      0.08188      0.03997      0.67248      0.08453      
25000   0.71947    0.03289    0.05854    0.03109      0.58875      0.08202      0.03997      0.67243      0.08480      
25100   0.71946    0.03289    0.05853    0.03109      0.58878      0.08173      0.03998      0.67248      0.08446      
25200   0.71945    0.03289    0.05853    0.03108      0.58878      0.08177      0.03996      0.67249      0.08441      
25300   0.71945    0.03289    0.05853    0.03108      0.58876      0.08195      0.03996      0.67247      0.08471      
25400   0.71944    0.03288    0.05853    0.03106      0.58878      0.08188      0.03995      0.67249      0.08462      
25500   0.71943    0.03288    0.05852    0.03107      0.58877      0.08196      0.03997      0.67247      0.08472      
25600   0.71943    0.03288    0.05852    0.03105      0.58879      0.08192      0.03993      0.67251      0.08478      
25700   0.71942    0.03287    0.05852    0.03106      0.58877      0.08196      0.03996      0.67250      0.08476      
25800   0.71941    0.03287    0.05852    0.03104      0.58877      0.08211      0.03993      0.67248      0.08492      
25900   0.71940    0.03287    0.05851    0.03110      0.58874      0.08182      0.03999      0.67242      0.08454      
26000   0.71940    0.03287    0.05851    0.03108      0.58878      0.08168      0.03996      0.67248      0.08440      
26100   0.71939    0.03286    0.05851    0.03110      0.58874      0.08167      0.04000      0.67243      0.08443      
26200   0.71938    0.03286    0.05850    0.03109      0.58872      0.08202      0.03999      0.67240      0.08476      
26300   0.71937    0.03285    0.05850    0.03108      0.58874      0.08193      0.03997      0.67243      0.08467      
26400   0.71937    0.03286    0.05850    0.03107      0.58876      0.08177      0.03996      0.67247      0.08451      
26500   0.71936    0.03285    0.05850    0.03110      0.58870      0.08207      0.03999      0.67241      0.08493      
26600   0.71935    0.03285    0.05850    0.03109      0.58870      0.08200      0.03998      0.67241      0.08474      
26700   0.71934    0.03285    0.05850    0.03107      0.58873      0.08190      0.03997      0.67246      0.08463      
26800   0.71934    0.03285    0.05849    0.03107      0.58875      0.08176      0.03994      0.67251      0.08441      
26900   0.71933    0.03285    0.05849    0.03105      0.58874      0.08202      0.03991      0.67250      0.08477      
27000   0.71933    0.03285    0.05849    0.03106      0.58873      0.08200      0.03994      0.67245      0.08482      
27100   0.71932    0.03284    0.05849    0.03108      0.58870      0.08207      0.03995      0.67240      0.08490      
27200   0.71931    0.03284    0.05849    0.03106      0.58871      0.08210      0.03994      0.67244      0.08504      
27300   0.71931    0.03283    0.05849    0.03108      0.58868      0.08227      0.03993      0.67240      0.08514      
27400   0.71930    0.03284    0.05849    0.03108      0.58871      0.08187      0.03996      0.67242      0.08446      
27500   0.71929    0.03284    0.05848    0.03109      0.58870      0.08182      0.03998      0.67242      0.08446      
27600   0.71928    0.03283    0.05848    0.03108      0.58869      0.08198      0.03995      0.67239      0.08467      
27700   0.71927    0.03283    0.05848    0.03107      0.58870      0.08199      0.03995      0.67241      0.08468      
27800   0.71927    0.03283    0.05848    0.03108      0.58869      0.08185      0.03997      0.67241      0.08455      
27900   0.71926    0.03282    0.05847    0.03109      0.58869      0.08186      0.03996      0.67239      0.08455      
28000   0.71925    0.03282    0.05847    0.03104      0.58872      0.08197      0.03990      0.67246      0.08466      
28100   0.71924    0.03282    0.05847    0.03107      0.58868      0.08200      0.03995      0.67241      0.08480      
28200   0.71923    0.03281    0.05846    0.03107      0.58868      0.08213      0.03995      0.67241      0.08499      
28300   0.71922    0.03281    0.05846    0.03111      0.58867      0.08174      0.03999      0.67240      0.08436      
28400   0.71922    0.03280    0.05846    0.03105      0.58874      0.08161      0.03993      0.67247      0.08427      
28500   0.71921    0.03281    0.05846    0.03109      0.58866      0.08196      0.03997      0.67238      0.08473      
28600   0.71920    0.03281    0.05846    0.03107      0.58869      0.08178      0.03995      0.67240      0.08451      
28700   0.71919    0.03280    0.05846    0.03104      0.58874      0.08153      0.03991      0.67250      0.08406      
28800   0.71919    0.03280    0.05845    0.03108      0.58866      0.08196      0.03996      0.67238      0.08482      
28900   0.71918    0.03279    0.05845    0.03106      0.58868      0.08196      0.03993      0.67240      0.08474      
29000   0.71917    0.03279    0.05845    0.03107      0.58867      0.08182      0.03996      0.67236      0.08462      
29100   0.71916    0.03279    0.05845    0.03109      0.58861      0.08222      0.03996      0.67231      0.08517      
29200   0.71916    0.03279    0.05845    0.03104      0.58868      0.08199      0.03990      0.67241      0.08484      
29300   0.71915    0.03279    0.05844    0.03109      0.58865      0.08179      0.03999      0.67231      0.08452      
29400   0.71914    0.03278    0.05844    0.03108      0.58866      0.08173      0.03997      0.67236      0.08442      
29500   0.71914    0.03278    0.05844    0.03102      0.58871      0.08189      0.03988      0.67242      0.08464      
29600   0.71913    0.03278    0.05843    0.03106      0.58867      0.08184      0.03995      0.67239      0.08455      
29700   0.71911    0.03277    0.05843    0.03107      0.58867      0.08168      0.03997      0.67238      0.08431      
29800   0.71911    0.03277    0.05843    0.03107      0.58867      0.08171      0.03998      0.67239      0.08442      
29900   0.71910    0.03277    0.05842    0.03104      0.58869      0.08173      0.03994      0.67244      0.08443      
30000   0.71909    0.03276    0.05842    0.03104      0.58867      0.08193      0.03992      0.67239      0.08464      
30100   0.71909    0.03277    0.05842    0.03107      0.58865      0.08179      0.03997      0.67238      0.08443      
30200   0.71908    0.03276    0.05842    0.03108      0.58864      0.08179      0.03997      0.67235      0.08447      
30300   0.71908    0.03276    0.05842    0.03108      0.58866      0.08159      0.03995      0.67240      0.08411      
30400   0.71907    0.03276    0.05842    0.03108      0.58864      0.08181      0.03997      0.67238      0.08441      
30500   0.71906    0.03275    0.05841    0.03103      0.58869      0.08173      0.03990      0.67241      0.08438      
30600   0.71905    0.03275    0.05841    0.03104      0.58866      0.08186      0.03991      0.67236      0.08454      
30700   0.71905    0.03275    0.05841    0.03110      0.58861      0.08176      0.03999      0.67229      0.08437      
30800   0.71904    0.03275    0.05841    0.03107      0.58865      0.08167      0.03994      0.67234      0.08429      
30900   0.71903    0.03275    0.05841    0.03103      0.58864      0.08200      0.03990      0.67235      0.08479      
31000   0.71902    0.03275    0.05841    0.03105      0.58861      0.08211      0.03991      0.67230      0.08496      
31100   0.71901    0.03274    0.05840    0.03107      0.58861      0.08187      0.03993      0.67231      0.08459      
31200   0.71901    0.03274    0.05840    0.03104      0.58863      0.08194      0.03990      0.67231      0.08468      
31300   0.71900    0.03274    0.05840    0.03104      0.58863      0.08180      0.03992      0.67231      0.08448      
31400   0.71899    0.03274    0.05840    0.03107      0.58862      0.08165      0.03996      0.67231      0.08429      
31500   0.71899    0.03274    0.05840    0.03108      0.58857      0.08197      0.03995      0.67224      0.08476      
31600   0.71898    0.03274    0.05840    0.03109      0.58858      0.08169      0.03999      0.67226      0.08436      
31700   0.71897    0.03274    0.05839    0.03103      0.58863      0.08178      0.03990      0.67229      0.08448      
31800   0.71896    0.03273    0.05839    0.03105      0.58859      0.08194      0.03991      0.67224      0.08473      
31900   0.71895    0.03273    0.05839    0.03104      0.58860      0.08188      0.03990      0.67228      0.08460      
32000   0.71895    0.03273    0.05839    0.03109      0.58857      0.08179      0.03999      0.67222      0.08448      
32100   0.71894    0.03273    0.05838    0.03108      0.58858      0.08166      0.03995      0.67226      0.08441      
32200   0.71893    0.03273    0.05838    0.03106      0.58859      0.08172      0.03992      0.67228      0.08446      
32300   0.71893    0.03273    0.05838    0.03108      0.58857      0.08176      0.03997      0.67224      0.08449      
32400   0.71892    0.03272    0.05837    0.03107      0.58859      0.08174      0.03995      0.67224      0.08445      
32500   0.71891    0.03271    0.05837    0.03107      0.58855      0.08204      0.03995      0.67222      0.08488      
32600   0.71890    0.03271    0.05837    0.03107      0.58857      0.08182      0.03995      0.67225      0.08451      
32700   0.71890    0.03271    0.05837    0.03106      0.58857      0.08187      0.03995      0.67225      0.08458      
32800   0.71889    0.03271    0.05837    0.03108      0.58857      0.08164      0.03997      0.67226      0.08429      
32900   0.71889    0.03271    0.05836    0.03108      0.58855      0.08176      0.03997      0.67224      0.08447      
33000   0.71888    0.03271    0.05836    0.03105      0.58858      0.08179      0.03993      0.67225      0.08456      
33100   0.71887    0.03271    0.05836    0.03106      0.58857      0.08171      0.03992      0.67225      0.08442      
33200   0.71886    0.03271    0.05836    0.03105      0.58856      0.08179      0.03993      0.67222      0.08458      
33300   0.71886    0.03271    0.05836    0.03107      0.58854      0.08179      0.03995      0.67218      0.08454      
33400   0.71885    0.03270    0.05836    0.03108      0.58855      0.08161      0.03997      0.67219      0.08429      
33500   0.71884    0.03270    0.05835    0.03109      0.58849      0.08210      0.03998      0.67213      0.08497      
33600   0.71884    0.03270    0.05835    0.03104      0.58856      0.08181      0.03992      0.67223      0.08460      
33700   0.71883    0.03270    0.05835    0.03103      0.58857      0.08176      0.03991      0.67226      0.08452      
33800   0.71882    0.03270    0.05834    0.03104      0.58856      0.08184      0.03990      0.67226      0.08460      
33900   0.71881    0.03270    0.05835    0.03108      0.58852      0.08176      0.03997      0.67217      0.08442      
34000   0.71881    0.03269    0.05834    0.03105      0.58855      0.08171      0.03993      0.67224      0.08430      
34100   0.71880    0.03269    0.05834    0.03104      0.58854      0.08198      0.03990      0.67222      0.08474      
34200   0.71880    0.03269    0.05834    0.03107      0.58853      0.08174      0.03995      0.67219      0.08453      
34300   0.71879    0.03269    0.05834    0.03107      0.58851      0.08183      0.03996      0.67215      0.08459      
34400   0.71878    0.03268    0.05833    0.03107      0.58852      0.08177      0.03995      0.67216      0.08453      
34500   0.71877    0.03268    0.05833    0.03108      0.58850      0.08187      0.03995      0.67213      0.08468      
34600   0.71876    0.03267    0.05833    0.03105      0.58852      0.08197      0.03991      0.67214      0.08474      
34700   0.71876    0.03268    0.05833    0.03108      0.58849      0.08189      0.03995      0.67210      0.08466      
34800   0.71875    0.03267    0.05832    0.03107      0.58852      0.08165      0.03994      0.67218      0.08425      
34900   0.71874    0.03267    0.05832    0.03102      0.58853      0.08202      0.03986      0.67220      0.08483      
35000   0.71873    0.03267    0.05832    0.03106      0.58851      0.08179      0.03993      0.67214      0.08449      
35100   0.71873    0.03267    0.05832    0.03105      0.58850      0.08190      0.03991      0.67213      0.08470      
35200   0.71872    0.03266    0.05832    0.03106      0.58848      0.08198      0.03992      0.67213      0.08479      
35300   0.71871    0.03266    0.05832    0.03102      0.58853      0.08180      0.03989      0.67220      0.08458      
35400   0.71870    0.03266    0.05831    0.03106      0.58848      0.08188      0.03993      0.67214      0.08471      
35500   0.71870    0.03266    0.05831    0.03104      0.58850      0.08188      0.03991      0.67219      0.08467      
35600   0.71869    0.03266    0.05831    0.03107      0.58846      0.08197      0.03996      0.67213      0.08478      
35700   0.71868    0.03266    0.05830    0.03105      0.58850      0.08179      0.03991      0.67218      0.08456      
35800   0.71867    0.03265    0.05830    0.03106      0.58848      0.08179      0.03995      0.67215      0.08455      
35900   0.71866    0.03265    0.05830    0.03106      0.58849      0.08155      0.03996      0.67217      0.08414      
36000   0.71866    0.03265    0.05830    0.03101      0.58851      0.08191      0.03989      0.67220      0.08472      
36100   0.71865    0.03265    0.05830    0.03103      0.58850      0.08176      0.03989      0.67218      0.08453      
36200   0.71864    0.03265    0.05829    0.03106      0.58846      0.08180      0.03994      0.67215      0.08453      
36300   0.71863    0.03264    0.05829    0.03106      0.58847      0.08171      0.03993      0.67216      0.08444      
36400   0.71863    0.03264    0.05829    0.03105      0.58846      0.08184      0.03994      0.67215      0.08463      
36500   0.71862    0.03264    0.05828    0.03106      0.58846      0.08179      0.03993      0.67215      0.08461      
36600   0.71861    0.03264    0.05828    0.03105      0.58847      0.08171      0.03993      0.67215      0.08443      
36700   0.71861    0.03264    0.05828    0.03106      0.58846      0.08164      0.03995      0.67213      0.08425      
36800   0.71859    0.03263    0.05828    0.03107      0.58843      0.08188      0.03996      0.67205      0.08469      
36900   0.71859    0.03264    0.05828    0.03104      0.58846      0.08176      0.03991      0.67211      0.08454      
37000   0.71858    0.03263    0.05827    0.03103      0.58846      0.08196      0.03989      0.67211      0.08490      
37100   0.71858    0.03263    0.05827    0.03103      0.58844      0.08197      0.03991      0.67207      0.08488      
37200   0.71857    0.03262    0.05827    0.03106      0.58843      0.08191      0.03995      0.67208      0.08476      
37300   0.71856    0.03262    0.05827    0.03106      0.58843      0.08193      0.03992      0.67206      0.08479      
37400   0.71855    0.03262    0.05826    0.03103      0.58847      0.08173      0.03989      0.67210      0.08455      
37500   0.71855    0.03262    0.05826    0.03106      0.58842      0.08183      0.03993      0.67208      0.08477      
37600   0.71854    0.03262    0.05826    0.03104      0.58845      0.08172      0.03991      0.67207      0.08457      
37700   0.71853    0.03261    0.05826    0.03104      0.58846      0.08161      0.03990      0.67210      0.08437      
37800   0.71852    0.03261    0.05826    0.03106      0.58844      0.08155      0.03992      0.67206      0.08433      
37900   0.71851    0.03261    0.05825    0.03105      0.58842      0.08180      0.03993      0.67203      0.08474      
38000   0.71851    0.03261    0.05825    0.03107      0.58841      0.08173      0.03995      0.67202      0.08462      
38100   0.71850    0.03261    0.05825    0.03104      0.58846      0.08157      0.03990      0.67209      0.08429      
38200   0.71849    0.03260    0.05824    0.03106      0.58843      0.08152      0.03993      0.67206      0.08424      
38300   0.71848    0.03260    0.05824    0.03104      0.58844      0.08167      0.03991      0.67208      0.08445      
38400   0.71848    0.03260    0.05824    0.03106      0.58839      0.08186      0.03994      0.67202      0.08468      
38500   0.71847    0.03260    0.05824    0.03103      0.58844      0.08165      0.03990      0.67207      0.08446      
38600   0.71846    0.03260    0.05823    0.03104      0.58840      0.08188      0.03991      0.67202      0.08479      
38700   0.71845    0.03260    0.05824    0.03104      0.58839      0.08190      0.03992      0.67201      0.08471      
38800   0.71844    0.03260    0.05823    0.03105      0.58839      0.08178      0.03992      0.67202      0.08469      
38900   0.71844    0.03260    0.05823    0.03103      0.58842      0.08159      0.03990      0.67206      0.08437      
39000   0.71843    0.03260    0.05823    0.03103      0.58842      0.08154      0.03990      0.67206      0.08430      
39100   0.71842    0.03259    0.05823    0.03104      0.58840      0.08165      0.03992      0.67202      0.08447      
39200   0.71841    0.03259    0.05822    0.03105      0.58838      0.08169      0.03991      0.67203      0.08452      
39300   0.71841    0.03259    0.05822    0.03104      0.58839      0.08173      0.03990      0.67205      0.08458      
39400   0.71840    0.03258    0.05822    0.03102      0.58841      0.08168      0.03987      0.67208      0.08449      
39500   0.71839    0.03258    0.05822    0.03102      0.58839      0.08187      0.03989      0.67206      0.08478      
39600   0.71838    0.03258    0.05821    0.03103      0.58837      0.08189      0.03990      0.67206      0.08488      
39700   0.71837    0.03258    0.05821    0.03104      0.58837      0.08168      0.03991      0.67203      0.08455      
39800   0.71837    0.03258    0.05821    0.03103      0.58836      0.08186      0.03990      0.67206      0.08483      
39900   0.71836    0.03258    0.05821    0.03104      0.58837      0.08162      0.03992      0.67204      0.08444      
40000   0.71836    0.03258    0.05821    0.03106      0.58834      0.08169      0.03994      0.67200      0.08451      
40100   0.71835    0.03257    0.05820    0.03106      0.58833      0.08178      0.03993      0.67198      0.08466      
40200   0.71834    0.03258    0.05820    0.03101      0.58836      0.08190      0.03988      0.67201      0.08477      
40300   0.71833    0.03257    0.05820    0.03106      0.58833      0.08172      0.03995      0.67198      0.08455      
40400   0.71832    0.03257    0.05820    0.03101      0.58837      0.08183      0.03988      0.67203      0.08471      
40500   0.71831    0.03256    0.05819    0.03101      0.58836      0.08184      0.03989      0.67204      0.08473      
40600   0.71831    0.03256    0.05819    0.03102      0.58837      0.08172      0.03989      0.67206      0.08461      
40700   0.71830    0.03255    0.05819    0.03102      0.58837      0.08169      0.03988      0.67207      0.08456      
40800   0.71829    0.03255    0.05818    0.03104      0.58834      0.08169      0.03992      0.67204      0.08448      
40900   0.71828    0.03255    0.05818    0.03104      0.58835      0.08157      0.03992      0.67203      0.08449      
41000   0.71827    0.03255    0.05818    0.03100      0.58837      0.08172      0.03986      0.67207      0.08458      
41100   0.71827    0.03255    0.05818    0.03104      0.58834      0.08168      0.03992      0.67202      0.08455      
41200   0.71826    0.03254    0.05818    0.03100      0.58838      0.08165      0.03987      0.67207      0.08451      
41300   0.71825    0.03254    0.05817    0.03100      0.58837      0.08175      0.03986      0.67207      0.08466      
41400   0.71825    0.03254    0.05817    0.03101      0.58835      0.08184      0.03989      0.67203      0.08483      
41500   0.71824    0.03254    0.05817    0.03102      0.58836      0.08162      0.03990      0.67202      0.08450      
41600   0.71823    0.03254    0.05817    0.03106      0.58829      0.08182      0.03996      0.67193      0.08473      
41700   0.71823    0.03253    0.05816    0.03104      0.58832      0.08168      0.03992      0.67198      0.08455      
41800   0.71822    0.03254    0.05816    0.03105      0.58831      0.08161      0.03993      0.67200      0.08444      
41900   0.71821    0.03253    0.05816    0.03102      0.58833      0.08167      0.03989      0.67199      0.08446      
42000   0.71820    0.03253    0.05816    0.03102      0.58831      0.08183      0.03991      0.67198      0.08468      
42100   0.71820    0.03253    0.05816    0.03102      0.58833      0.08164      0.03991      0.67201      0.08437      
42200   0.71819    0.03252    0.05815    0.03099      0.58835      0.08169      0.03986      0.67203      0.08458      
42300   0.71818    0.03252    0.05815    0.03102      0.58831      0.08177      0.03990      0.67199      0.08457      
42400   0.71817    0.03252    0.05815    0.03103      0.58829      0.08183      0.03992      0.67195      0.08467      
42500   0.71816    0.03251    0.05814    0.03104      0.58830      0.08174      0.03992      0.67196      0.08454      
42600   0.71815    0.03251    0.05814    0.03105      0.58828      0.08175      0.03993      0.67191      0.08443      
42700   0.71814    0.03251    0.05814    0.03101      0.58835      0.08144      0.03987      0.67202      0.08411      
42800   0.71814    0.03250    0.05814    0.03105      0.58826      0.08184      0.03992      0.67191      0.08471      
42900   0.71813    0.03250    0.05814    0.03099      0.58831      0.08188      0.03986      0.67197      0.08470      
43000   0.71812    0.03250    0.05813    0.03102      0.58829      0.08178      0.03989      0.67193      0.08456      
43100   0.71812    0.03250    0.05813    0.03102      0.58830      0.08168      0.03991      0.67194      0.08449      
43200   0.71811    0.03250    0.05813    0.03102      0.58831      0.08160      0.03989      0.67195      0.08439      
43300   0.71810    0.03249    0.05813    0.03100      0.58832      0.08161      0.03987      0.67199      0.08438      
43400   0.71810    0.03249    0.05812    0.03099      0.58832      0.08164      0.03987      0.67199      0.08437      
43500   0.71809    0.03249    0.05812    0.03103      0.58827      0.08180      0.03992      0.67196      0.08467      
43600   0.71808    0.03249    0.05812    0.03101      0.58830      0.08160      0.03990      0.67199      0.08431      
43700   0.71807    0.03249    0.05812    0.03102      0.58827      0.08174      0.03991      0.67197      0.08461      
43800   0.71807    0.03249    0.05811    0.03101      0.58827      0.08188      0.03986      0.67196      0.08489      
43900   0.71806    0.03249    0.05811    0.03102      0.58827      0.08169      0.03990      0.67194      0.08444      
44000   0.71806    0.03249    0.05811    0.03101      0.58829      0.08164      0.03990      0.67197      0.08438      
44100   0.71805    0.03249    0.05811    0.03103      0.58824      0.08183      0.03992      0.67193      0.08469      
44200   0.71804    0.03248    0.05810    0.03103      0.58825      0.08176      0.03993      0.67192      0.08454      
44300   0.71803    0.03248    0.05810    0.03101      0.58824      0.08203      0.03989      0.67191      0.08497      
44400   0.71802    0.03247    0.05810    0.03104      0.58825      0.08161      0.03991      0.67194      0.08439      
44500   0.71802    0.03247    0.05810    0.03102      0.58825      0.08174      0.03989      0.67195      0.08474      
44600   0.71801    0.03247    0.05810    0.03100      0.58827      0.08169      0.03989      0.67199      0.08448      
44700   0.71801    0.03248    0.05810    0.03102      0.58824      0.08172      0.03991      0.67195      0.08452      
44800   0.71799    0.03247    0.05809    0.03102      0.58825      0.08169      0.03988      0.67194      0.08451      
44900   0.71799    0.03247    0.05809    0.03104      0.58821      0.08173      0.03991      0.67192      0.08454      
45000   0.71798    0.03247    0.05809    0.03102      0.58822      0.08181      0.03990      0.67193      0.08476      
45100   0.71797    0.03247    0.05809    0.03103      0.58822      0.08173      0.03990      0.67191      0.08464      
45200   0.71797    0.03246    0.05808    0.03101      0.58825      0.08160      0.03988      0.67192      0.08443      
45300   0.71796    0.03246    0.05808    0.03098      0.58826      0.08174      0.03985      0.67199      0.08469      
45400   0.71795    0.03246    0.05808    0.03101      0.58825      0.08155      0.03989      0.67193      0.08433      
45500   0.71795    0.03246    0.05808    0.03099      0.58826      0.08168      0.03986      0.67195      0.08452      
45600   0.71794    0.03245    0.05807    0.03103      0.58821      0.08172      0.03992      0.67189      0.08457      
45700   0.71793    0.03245    0.05807    0.03103      0.58819      0.08198      0.03990      0.67188      0.08505      
45800   0.71792    0.03244    0.05807    0.03103      0.58820      0.08177      0.03989      0.67189      0.08476      
45900   0.71792    0.03245    0.05807    0.03103      0.58821      0.08166      0.03991      0.67192      0.08446      
46000   0.71791    0.03244    0.05806    0.03103      0.58821      0.08174      0.03989      0.67190      0.08469      
46100   0.71790    0.03244    0.05806    0.03101      0.58823      0.08166      0.03989      0.67195      0.08456      
46200   0.71789    0.03244    0.05806    0.03101      0.58822      0.08167      0.03987      0.67192      0.08455      
46300   0.71789    0.03243    0.05805    0.03100      0.58825      0.08147      0.03985      0.67198      0.08426      
46400   0.71788    0.03243    0.05805    0.03102      0.58822      0.08162      0.03988      0.67192      0.08444      
46500   0.71788    0.03243    0.05805    0.03101      0.58820      0.08184      0.03988      0.67190      0.08483      
46600   0.71787    0.03243    0.05805    0.03101      0.58822      0.08163      0.03988      0.67192      0.08449      
46700   0.71786    0.03243    0.05805    0.03105      0.58816      0.08168      0.03992      0.67185      0.08453      
46800   0.71785    0.03242    0.05805    0.03103      0.58821      0.08145      0.03989      0.67193      0.08424      
46900   0.71785    0.03242    0.05804    0.03103      0.58821      0.08143      0.03989      0.67193      0.08423      
47000   0.71784    0.03242    0.05804    0.03103      0.58820      0.08151      0.03989      0.67192      0.08426      
47100   0.71783    0.03242    0.05804    0.03103      0.58818      0.08164      0.03991      0.67188      0.08455      
47200   0.71782    0.03242    0.05804    0.03103      0.58817      0.08177      0.03989      0.67187      0.08475      
47300   0.71781    0.03241    0.05804    0.03101      0.58818      0.08166      0.03989      0.67188      0.08454      
47400   0.71781    0.03242    0.05803    0.03101      0.58819      0.08163      0.03989      0.67187      0.08448      
47500   0.71780    0.03241    0.05803    0.03103      0.58817      0.08166      0.03988      0.67185      0.08447      
47600   0.71779    0.03241    0.05803    0.03102      0.58816      0.08173      0.03989      0.67182      0.08460      
47700   0.71779    0.03241    0.05803    0.03102      0.58817      0.08159      0.03989      0.67188      0.08443      
47800   0.71778    0.03241    0.05803    0.03103      0.58813      0.08183      0.03992      0.67180      0.08471      
47900   0.71778    0.03241    0.05802    0.03105      0.58813      0.08161      0.03992      0.67181      0.08440      
48000   0.71777    0.03240    0.05802    0.03103      0.58814      0.08172      0.03990      0.67180      0.08462      
48100   0.71776    0.03240    0.05802    0.03106      0.58813      0.08157      0.03993      0.67181      0.08441      
48200   0.71776    0.03240    0.05802    0.03105      0.58813      0.08166      0.03992      0.67179      0.08450      
48300   0.71775    0.03240    0.05801    0.03103      0.58815      0.08166      0.03989      0.67182      0.08458      
48400   0.71774    0.03239    0.05801    0.03105      0.58812      0.08165      0.03991      0.67178      0.08456      
48500   0.71773    0.03239    0.05801    0.03103      0.58813      0.08173      0.03990      0.67178      0.08461      
48600   0.71773    0.03239    0.05801    0.03103      0.58813      0.08167      0.03991      0.67180      0.08458      
48700   0.71772    0.03238    0.05800    0.03105      0.58811      0.08163      0.03994      0.67177      0.08444      
48800   0.71771    0.03239    0.05800    0.03104      0.58810      0.08176      0.03991      0.67176      0.08465      
48900   0.71770    0.03238    0.05800    0.03102      0.58812      0.08168      0.03991      0.67182      0.08455      
49000   0.71770    0.03238    0.05800    0.03103      0.58811      0.08184      0.03988      0.67178      0.08488      
49100   0.71769    0.03238    0.05800    0.03104      0.58813      0.08147      0.03992      0.67181      0.08413      
49200   0.71768    0.03238    0.05799    0.03103      0.58812      0.08164      0.03991      0.67178      0.08439      
49300   0.71768    0.03238    0.05799    0.03101      0.58814      0.08164      0.03987      0.67183      0.08446      
49400   0.71767    0.03237    0.05799    0.03100      0.58812      0.08177      0.03987      0.67178      0.08473      
49500   0.71766    0.03237    0.05799    0.03104      0.58809      0.08175      0.03992      0.67174      0.08464      
49600   0.71765    0.03237    0.05798    0.03103      0.58811      0.08166      0.03989      0.67175      0.08440      
49700   0.71765    0.03237    0.05798    0.03103      0.58810      0.08170      0.03990      0.67175      0.08447      
49800   0.71764    0.03236    0.05798    0.03100      0.58811      0.08177      0.03987      0.67179      0.08464      
49900   0.71763    0.03236    0.05798    0.03100      0.58812      0.08164      0.03987      0.67183      0.08449      
50000   0.71763    0.03236    0.05797    0.03102      0.58811      0.08170      0.03988      0.67179      0.08457      
50100   0.71762    0.03236    0.05797    0.03100      0.58810      0.08194      0.03986      0.67177      0.08495      
50200   0.71761    0.03235    0.05797    0.03106      0.58808      0.08150      0.03993      0.67175      0.08431      
50300   0.71760    0.03235    0.05797    0.03101      0.58811      0.08167      0.03987      0.67177      0.08454      
50400   0.71760    0.03235    0.05796    0.03102      0.58809      0.08168      0.03988      0.67176      0.08458      
50500   0.71759    0.03235    0.05796    0.03103      0.58807      0.08169      0.03989      0.67176      0.08460      
50600   0.71758    0.03235    0.05796    0.03100      0.58810      0.08176      0.03986      0.67181      0.08472      
50700   0.71758    0.03234    0.05796    0.03100      0.58809      0.08182      0.03986      0.67176      0.08472      
50800   0.71757    0.03234    0.05795    0.03099      0.58811      0.08177      0.03984      0.67178      0.08468      
50900   0.71756    0.03234    0.05795    0.03099      0.58811      0.08174      0.03985      0.67179      0.08466      
51000   0.71755    0.03234    0.05795    0.03101      0.58808      0.08176      0.03989      0.67174      0.08465      
51100   0.71754    0.03233    0.05795    0.03099      0.58810      0.08175      0.03984      0.67181      0.08467      
51200   0.71754    0.03233    0.05794    0.03100      0.58808      0.08177      0.03985      0.67174      0.08469      
51300   0.71753    0.03234    0.05794    0.03102      0.58807      0.08155      0.03988      0.67173      0.08440      
51400   0.71752    0.03234    0.05794    0.03099      0.58810      0.08159      0.03985      0.67175      0.08451      
51500   0.71752    0.03233    0.05794    0.03101      0.58808      0.08160      0.03987      0.67171      0.08448      
51600   0.71751    0.03233    0.05794    0.03102      0.58805      0.08171      0.03991      0.67170      0.08465      
51700   0.71750    0.03233    0.05794    0.03101      0.58806      0.08161      0.03988      0.67170      0.08454      
51800   0.71749    0.03233    0.05794    0.03098      0.58810      0.08157      0.03986      0.67178      0.08440      
51900   0.71749    0.03232    0.05793    0.03102      0.58804      0.08173      0.03990      0.67169      0.08465      
52000   0.71748    0.03232    0.05793    0.03100      0.58807      0.08164      0.03987      0.67175      0.08457      
52100   0.71747    0.03232    0.05793    0.03098      0.58809      0.08166      0.03984      0.67176      0.08460      
52200   0.71747    0.03232    0.05793    0.03100      0.58806      0.08164      0.03988      0.67174      0.08457      
52300   0.71746    0.03231    0.05792    0.03100      0.58806      0.08168      0.03987      0.67172      0.08466      
52400   0.71745    0.03231    0.05792    0.03099      0.58806      0.08156      0.03986      0.67174      0.08444      
52500   0.71744    0.03231    0.05792    0.03101      0.58803      0.08178      0.03989      0.67168      0.08473      
52600   0.71744    0.03231    0.05792    0.03102      0.58802      0.08179      0.03988      0.67168      0.08476      
52700   0.71743    0.03231    0.05792    0.03100      0.58804      0.08162      0.03987      0.67170      0.08454      
52800   0.71742    0.03231    0.05792    0.03101      0.58804      0.08148      0.03989      0.67171      0.08442      
52900   0.71742    0.03231    0.05791    0.03102      0.58801      0.08165      0.03991      0.67167      0.08471      
53000   0.71741    0.03230    0.05791    0.03103      0.58801      0.08163      0.03990      0.67168      0.08462      
53100   0.71740    0.03230    0.05791    0.03101      0.58801      0.08174      0.03989      0.67168      0.08476      
53200   0.71740    0.03230    0.05791    0.03103      0.58801      0.08155      0.03991      0.67169      0.08445      
53300   0.71739    0.03230    0.05790    0.03103      0.58799      0.08175      0.03991      0.67165      0.08468      
53400   0.71739    0.03230    0.05790    0.03104      0.58799      0.08160      0.03992      0.67166      0.08449      
53500   0.71738    0.03230    0.05790    0.03101      0.58802      0.08159      0.03986      0.67169      0.08450      
53600   0.71737    0.03229    0.05790    0.03099      0.58804      0.08155      0.03987      0.67173      0.08441      
53700   0.71737    0.03229    0.05789    0.03101      0.58803      0.08146      0.03987      0.67172      0.08431      
53800   0.71736    0.03228    0.05789    0.03100      0.58802      0.08163      0.03988      0.67166      0.08447      
53900   0.71735    0.03228    0.05789    0.03101      0.58800      0.08169      0.03988      0.67165      0.08470      
54000   0.71735    0.03228    0.05789    0.03102      0.58799      0.08171      0.03989      0.67163      0.08465      
54100   0.71734    0.03228    0.05788    0.03102      0.58800      0.08163      0.03988      0.67166      0.08456      
54200   0.71733    0.03228    0.05788    0.03102      0.58798      0.08177      0.03986      0.67164      0.08485      
54300   0.71732    0.03228    0.05788    0.03102      0.58799      0.08161      0.03988      0.67164      0.08456      
54400   0.71731    0.03227    0.05788    0.03102      0.58798      0.08167      0.03988      0.67165      0.08465      
54500   0.71731    0.03227    0.05787    0.03101      0.58799      0.08170      0.03988      0.67167      0.08472      
54600   0.71730    0.03226    0.05787    0.03103      0.58797      0.08172      0.03988      0.67165      0.08468      
54700   0.71730    0.03226    0.05787    0.03099      0.58802      0.08158      0.03985      0.67170      0.08448      
54800   0.71729    0.03226    0.05787    0.03099      0.58802      0.08147      0.03985      0.67173      0.08440      
54900   0.71728    0.03226    0.05787    0.03101      0.58798      0.08167      0.03987      0.67163      0.08464      
55000   0.71728    0.03226    0.05786    0.03101      0.58796      0.08174      0.03989      0.67163      0.08482      
55100   0.71727    0.03226    0.05786    0.03096      0.58802      0.08169      0.03982      0.67172      0.08469      
55200   0.71726    0.03226    0.05786    0.03097      0.58801      0.08169      0.03983      0.67168      0.08457      
55300   0.71726    0.03226    0.05786    0.03101      0.58798      0.08155      0.03989      0.67165      0.08442      
55400   0.71725    0.03226    0.05786    0.03098      0.58799      0.08161      0.03985      0.67168      0.08454      
55500   0.71724    0.03226    0.05786    0.03098      0.58801      0.08151      0.03984      0.67168      0.08431      
55600   0.71723    0.03225    0.05785    0.03099      0.58798      0.08164      0.03985      0.67166      0.08453      
55700   0.71723    0.03225    0.05785    0.03099      0.58799      0.08150      0.03985      0.67167      0.08434      
55800   0.71722    0.03225    0.05785    0.03101      0.58796      0.08152      0.03988      0.67163      0.08440      
55900   0.71722    0.03225    0.05785    0.03100      0.58797      0.08149      0.03988      0.67164      0.08425      
56000   0.71721    0.03225    0.05784    0.03100      0.58796      0.08159      0.03986      0.67164      0.08440      
56100   0.71720    0.03224    0.05784    0.03102      0.58792      0.08169      0.03992      0.67160      0.08454      
56200   0.71720    0.03224    0.05784    0.03100      0.58796      0.08153      0.03987      0.67165      0.08433      
56300   0.71719    0.03224    0.05784    0.03098      0.58795      0.08172      0.03985      0.67165      0.08471      
56400   0.71718    0.03224    0.05784    0.03100      0.58795      0.08156      0.03988      0.67165      0.08444      
56500   0.71718    0.03223    0.05783    0.03102      0.58794      0.08147      0.03990      0.67164      0.08425      
56600   0.71717    0.03223    0.05783    0.03099      0.58795      0.08155      0.03986      0.67164      0.08440      
56700   0.71716    0.03223    0.05783    0.03099      0.58795      0.08154      0.03984      0.67167      0.08441      
56800   0.71715    0.03223    0.05783    0.03102      0.58790      0.08171      0.03990      0.67159      0.08456      
56900   0.71715    0.03223    0.05783    0.03099      0.58795      0.08149      0.03986      0.67164      0.08421      
57000   0.71714    0.03223    0.05783    0.03098      0.58795      0.08154      0.03985      0.67166      0.08433      
57100   0.71714    0.03223    0.05783    0.03098      0.58795      0.08150      0.03984      0.67166      0.08431      
57200   0.71713    0.03222    0.05783    0.03100      0.58791      0.08173      0.03986      0.67160      0.08466      
57300   0.71712    0.03222    0.05782    0.03098      0.58794      0.08152      0.03987      0.67168      0.08441      
57400   0.71711    0.03222    0.05782    0.03098      0.58793      0.08155      0.03985      0.67165      0.08441      
57500   0.71711    0.03222    0.05782    0.03100      0.58791      0.08165      0.03988      0.67160      0.08460      
57600   0.71710    0.03222    0.05782    0.03101      0.58790      0.08164      0.03987      0.67159      0.08449      
57700   0.71709    0.03221    0.05781    0.03100      0.58788      0.08179      0.03987      0.67156      0.08481      
57800   0.71709    0.03221    0.05781    0.03099      0.58790      0.08167      0.03986      0.67161      0.08460      
57900   0.71708    0.03220    0.05781    0.03099      0.58789      0.08179      0.03986      0.67158      0.08473      
58000   0.71707    0.03220    0.05781    0.03100      0.58790      0.08154      0.03987      0.67160      0.08433      
58100   0.71707    0.03220    0.05781    0.03103      0.58788      0.08155      0.03991      0.67156      0.08436      
58200   0.71706    0.03220    0.05781    0.03099      0.58790      0.08166      0.03986      0.67157      0.08450      
58300   0.71706    0.03220    0.05780    0.03101      0.58786      0.08175      0.03989      0.67154      0.08467      
58400   0.71705    0.03220    0.05780    0.03097      0.58789      0.08181      0.03984      0.67157      0.08474      
58500   0.71704    0.03220    0.05780    0.03101      0.58786      0.08173      0.03990      0.67149      0.08465      
58600   0.71704    0.03220    0.05780    0.03097      0.58790      0.08169      0.03984      0.67157      0.08452      
58700   0.71703    0.03220    0.05780    0.03103      0.58784      0.08163      0.03991      0.67149      0.08451      
58800   0.71702    0.03219    0.05780    0.03099      0.58788      0.08153      0.03988      0.67154      0.08442      
58900   0.71701    0.03219    0.05779    0.03100      0.58786      0.08174      0.03987      0.67153      0.08472      
59000   0.71700    0.03218    0.05779    0.03100      0.58787      0.08165      0.03989      0.67153      0.08446      
59100   0.71700    0.03218    0.05779    0.03099      0.58786      0.08177      0.03986      0.67152      0.08469      
59200   0.71699    0.03218    0.05779    0.03098      0.58787      0.08172      0.03985      0.67151      0.08465      
59300   0.71699    0.03218    0.05778    0.03097      0.58788      0.08178      0.03984      0.67154      0.08475      
59400   0.71698    0.03218    0.05778    0.03101      0.58785      0.08149      0.03990      0.67151      0.08437      
59500   0.71697    0.03218    0.05778    0.03101      0.58784      0.08157      0.03988      0.67150      0.08448      
59600   0.71697    0.03218    0.05778    0.03100      0.58787      0.08143      0.03987      0.67153      0.08430      
59700   0.71696    0.03218    0.05778    0.03098      0.58787      0.08153      0.03985      0.67153      0.08449      
59800   0.71695    0.03218    0.05778    0.03097      0.58788      0.08150      0.03983      0.67157      0.08444      
59900   0.71695    0.03218    0.05777    0.03099      0.58785      0.08156      0.03985      0.67152      0.08443      
60000   0.71694    0.03217    0.05777    0.03101      0.58784      0.08147      0.03988      0.67151      0.08425      
60100   0.71694    0.03217    0.05777    0.03100      0.58782      0.08174      0.03988      0.67150      0.08469      
60200   0.71693    0.03217    0.05777    0.03100      0.58784      0.08155      0.03987      0.67151      0.08447      
60300   0.71692    0.03217    0.05777    0.03100      0.58782      0.08161      0.03988      0.67147      0.08456      
60400   0.71692    0.03217    0.05776    0.03098      0.58784      0.08162      0.03985      0.67148      0.08454      
60500   0.71691    0.03217    0.05776    0.03100      0.58781      0.08162      0.03988      0.67143      0.08452      
60600   0.71690    0.03217    0.05776    0.03097      0.58786      0.08148      0.03984      0.67150      0.08428      
60700   0.71689    0.03217    0.05776    0.03099      0.58781      0.08163      0.03988      0.67145      0.08458      
60800   0.71688    0.03216    0.05776    0.03095      0.58787      0.08148      0.03981      0.67151      0.08433      
60900   0.71688    0.03216    0.05775    0.03098      0.58784      0.08150      0.03985      0.67147      0.08431      
61000   0.71687    0.03216    0.05775    0.03098      0.58782      0.08159      0.03985      0.67146      0.08449      
61100   0.71686    0.03216    0.05775    0.03100      0.58780      0.08162      0.03988      0.67142      0.08457      
61200   0.71686    0.03215    0.05775    0.03100      0.58780      0.08158      0.03988      0.67144      0.08450      
61300   0.71685    0.03215    0.05775    0.03100      0.58778      0.08171      0.03987      0.67144      0.08464      
61400   0.71684    0.03215    0.05774    0.03100      0.58779      0.08160      0.03987      0.67141      0.08449      
61500   0.71683    0.03215    0.05774    0.03097      0.58782      0.08158      0.03983      0.67141      0.08450      
61600   0.71683    0.03214    0.05774    0.03097      0.58781      0.08167      0.03983      0.67142      0.08472      
61700   0.71682    0.03214    0.05774    0.03098      0.58780      0.08154      0.03984      0.67144      0.08458      
61800   0.71681    0.03214    0.05774    0.03100      0.58779      0.08145      0.03986      0.67143      0.08441      
61900   0.71681    0.03214    0.05774    0.03099      0.58778      0.08158      0.03985      0.67143      0.08459      
62000   0.71680    0.03214    0.05773    0.03099      0.58778      0.08160      0.03985      0.67142      0.08458      
62100   0.71679    0.03213    0.05773    0.03102      0.58776      0.08150      0.03988      0.67140      0.08438      
62200   0.71679    0.03214    0.05773    0.03100      0.58777      0.08148      0.03985      0.67143      0.08432      
62300   0.71678    0.03214    0.05773    0.03102      0.58775      0.08147      0.03989      0.67140      0.08434      
62400   0.71677    0.03213    0.05773    0.03097      0.58779      0.08148      0.03984      0.67146      0.08442      
62500   0.71677    0.03213    0.05772    0.03101      0.58776      0.08137      0.03987      0.67141      0.08423      
62600   0.71676    0.03213    0.05772    0.03098      0.58777      0.08160      0.03984      0.67142      0.08448      
62700   0.71675    0.03213    0.05772    0.03100      0.58775      0.08149      0.03986      0.67139      0.08435      
[...]
64600   0.71663    0.03210    0.05768    0.03100      0.58770      0.08150      0.03987      0.67141      0.08443      
64700   0.71662    0.03209    0.05768    0.03100      0.58769      0.08151      0.03987      0.67140      0.08446      
64800   0.71661    0.03209    0.05767    0.03098      0.58771      0.08150      0.03984      0.67142      0.08442      
64900   0.71660    0.03209    0.05767    0.03098      0.58772      0.08141      0.03984      0.67142      0.08432      
65000   0.71660    0.03209    0.05767    0.03097      0.58771      0.08159      0.03983      0.67139      0.08464      
65100   0.71659    0.03209    0.05766    0.03100      0.58769      0.08149      0.03984      0.67136      0.08447      
65200   0.71658    0.03209    0.05766    0.03100      0.58769      0.08145      0.03985      0.67136      0.08437      
65300   0.71657    0.03208    0.05766    0.03097      0.58771      0.08149      0.03981      0.67142      0.08451      
65400   0.71656    0.03208    0.05766    0.03098      0.58769      0.08157      0.03983      0.67138      0.08457      
65500   0.71656    0.03208    0.05766    0.03097      0.58769      0.08162      0.03981      0.67138      0.08459      
65600   0.71655    0.03208    0.05765    0.03097      0.58770      0.08153      0.03982      0.67140      0.08446      
65700   0.71655    0.03208    0.05765    0.03098      0.58768      0.08154      0.03984      0.67139      0.08452      
65800   0.71654    0.03208    0.05765    0.03098      0.58768      0.08154      0.03985      0.67139      0.08444      
65900   0.71654    0.03208    0.05765    0.03097      0.58769      0.08150      0.03984      0.67140      0.08442      
66000   0.71653    0.03207    0.05764    0.03094      0.58772      0.08147      0.03978      0.67145      0.08440      
66100   0.71652    0.03207    0.05764    0.03097      0.58769      0.08147      0.03984      0.67140      0.08447      
66200   0.71652    0.03207    0.05764    0.03097      0.58767      0.08162      0.03982      0.67138      0.08468      
66300   0.71651    0.03207    0.05764    0.03099      0.58766      0.08153      0.03985      0.67135      0.08452      
66400   0.71650    0.03207    0.05764    0.03099      0.58767      0.08142      0.03984      0.67137      0.08442      
66500   0.71649    0.03206    0.05763    0.03098      0.58766      0.08154      0.03983      0.67137      0.08459      
66600   0.71649    0.03206    0.05763    0.03095      0.58767      0.08175      0.03978      0.67139      0.08487      
66700   0.71648    0.03206    0.05763    0.03097      0.58768      0.08134      0.03982      0.67138      0.08421      
66800   0.71647    0.03206    0.05763    0.03097      0.58767      0.08142      0.03981      0.67137      0.08432      
66900   0.71646    0.03206    0.05763    0.03097      0.58766      0.08147      0.03982      0.67137      0.08440      
67000   0.71646    0.03205    0.05762    0.03098      0.58765      0.08145      0.03983      0.67135      0.08443      
67100   0.71645    0.03206    0.05762    0.03094      0.58767      0.08157      0.03979      0.67137      0.08454      
67200   0.71644    0.03205    0.05762    0.03096      0.58766      0.08150      0.03981      0.67136      0.08448      
67300   0.71644    0.03206    0.05762    0.03095      0.58766      0.08152      0.03979      0.67134      0.08445      
67400   0.71643    0.03205    0.05762    0.03097      0.58764      0.08150      0.03981      0.67133      0.08447      
67500   0.71642    0.03205    0.05762    0.03099      0.58762      0.08145      0.03984      0.67131      0.08438      
67600   0.71641    0.03205    0.05762    0.03097      0.58764      0.08141      0.03981      0.67137      0.08430      
67700   0.71641    0.03205    0.05761    0.03099      0.58762      0.08137      0.03985      0.67133      0.08433      
67800   0.71640    0.03204    0.05761    0.03098      0.58764      0.08133      0.03984      0.67134      0.08427      
67900   0.71639    0.03204    0.05761    0.03098      0.58764      0.08124      0.03985      0.67136      0.08415      
68000   0.71639    0.03203    0.05761    0.03096      0.58764      0.08145      0.03980      0.67136      0.08448      
68100   0.71638    0.03203    0.05760    0.03097      0.58763      0.08141      0.03983      0.67134      0.08443      
68200   0.71637    0.03203    0.05760    0.03099      0.58760      0.08147      0.03984      0.67131      0.08444      
68300   0.71636    0.03203    0.05760    0.03097      0.58762      0.08151      0.03981      0.67137      0.08455      
68400   0.71636    0.03203    0.05760    0.03098      0.58761      0.08142      0.03982      0.67135      0.08440      
68500   0.71635    0.03203    0.05760    0.03095      0.58763      0.08147      0.03981      0.67134      0.08443      
68600   0.71635    0.03203    0.05759    0.03094      0.58763      0.08158      0.03977      0.67136      0.08460      
68700   0.71634    0.03202    0.05759    0.03095      0.58763      0.08148      0.03979      0.67136      0.08448      
68800   0.71633    0.03202    0.05759    0.03099      0.58760      0.08135      0.03985      0.67131      0.08423      
68900   0.71632    0.03202    0.05759    0.03098      0.58759      0.08140      0.03983      0.67130      0.08430      
69000   0.71632    0.03202    0.05759    0.03094      0.58763      0.08138      0.03978      0.67134      0.08433      
69100   0.71631    0.03202    0.05759    0.03094      0.58763      0.08136      0.03977      0.67134      0.08420      
69200   0.71630    0.03201    0.05758    0.03095      0.58761      0.08153      0.03978      0.67130      0.08449      
69300   0.71630    0.03201    0.05758    0.03097      0.58759      0.08150      0.03980      0.67130      0.08446      
69400   0.71629    0.03201    0.05758    0.03099      0.58756      0.08152      0.03982      0.67127      0.08451      
69500   0.71629    0.03201    0.05757    0.03095      0.58759      0.08166      0.03978      0.67130      0.08474      
69600   0.71628    0.03201    0.05757    0.03097      0.58758      0.08150      0.03981      0.67130      0.08443      
69700   0.71627    0.03201    0.05757    0.03097      0.58757      0.08145      0.03981      0.67128      0.08437      
69800   0.71626    0.03200    0.05757    0.03095      0.58760      0.08133      0.03980      0.67132      0.08416      
69900   0.71626    0.03200    0.05757    0.03095      0.58758      0.08159      0.03979      0.67129      0.08451      
70000   0.71625    0.03200    0.05756    0.03096      0.58759      0.08138      0.03980      0.67130      0.08430      
70100   0.71624    0.03200    0.05756    0.03097      0.58756      0.08154      0.03982      0.67125      0.08448      
70200   0.71623    0.03200    0.05756    0.03096      0.58757      0.08148      0.03979      0.67129      0.08442      
70300   0.71623    0.03200    0.05756    0.03095      0.58759      0.08135      0.03981      0.67132      0.08419      
70400   0.71622    0.03200    0.05755    0.03094      0.58759      0.08143      0.03979      0.67133      0.08432      
70500   0.71622    0.03200    0.05755    0.03095      0.58755      0.08159      0.03981      0.67128      0.08458      
70600   0.71621    0.03199    0.05755    0.03096      0.58755      0.08162      0.03982      0.67126      0.08465      
70700   0.71620    0.03199    0.05755    0.03098      0.58751      0.08166      0.03983      0.67122      0.08466      
70800   0.71619    0.03199    0.05755    0.03099      0.58752      0.08152      0.03985      0.67123      0.08445      
70900   0.71619    0.03199    0.05754    0.03098      0.58755      0.08134      0.03982      0.67126      0.08414      
71000   0.71618    0.03198    0.05754    0.03097      0.58754      0.08151      0.03982      0.67124      0.08442      
71100   0.71617    0.03198    0.05754    0.03096      0.58755      0.08140      0.03981      0.67127      0.08426      
71200   0.71617    0.03198    0.05754    0.03096      0.58753      0.08159      0.03981      0.67124      0.08463      
71300   0.71616    0.03198    0.05753    0.03095      0.58755      0.08145      0.03981      0.67124      0.08441      
71400   0.71615    0.03198    0.05753    0.03096      0.58753      0.08155      0.03980      0.67124      0.08453      
71500   0.71615    0.03197    0.05753    0.03094      0.58754      0.08158      0.03978      0.67126      0.08463      
71600   0.71614    0.03197    0.05753    0.03097      0.58752      0.08149      0.03981      0.67124      0.08445      
71700   0.71613    0.03197    0.05752    0.03097      0.58751      0.08158      0.03981      0.67122      0.08461      
71800   0.71613    0.03197    0.05752    0.03095      0.58755      0.08133      0.03979      0.67127      0.08420      
71900   0.71612    0.03197    0.05752    0.03095      0.58754      0.08144      0.03979      0.67125      0.08432      
72000   0.71612    0.03197    0.05752    0.03096      0.58751      0.08159      0.03980      0.67123      0.08458      
72100   0.71611    0.03197    0.05752    0.03094      0.58753      0.08146      0.03978      0.67125      0.08443      
72200   0.71610    0.03197    0.05752    0.03094      0.58753      0.08146      0.03978      0.67122      0.08441      
72300   0.71609    0.03196    0.05752    0.03095      0.58752      0.08141      0.03979      0.67122      0.08431      
72400   0.71608    0.03196    0.05751    0.03094      0.58753      0.08134      0.03978      0.67121      0.08421      
72500   0.71608    0.03196    0.05751    0.03093      0.58754      0.08140      0.03977      0.67124      0.08430      
72600   0.71607    0.03195    0.05751    0.03096      0.58749      0.08153      0.03981      0.67116      0.08442      
72700   0.71606    0.03195    0.05750    0.03096      0.58750      0.08151      0.03980      0.67119      0.08443      
72800   0.71606    0.03195    0.05750    0.03093      0.58754      0.08131      0.03976      0.67125      0.08419      
72900   0.71605    0.03195    0.05750    0.03097      0.58749      0.08138      0.03982      0.67118      0.08425      
73000   0.71604    0.03195    0.05750    0.03095      0.58750      0.08150      0.03979      0.67119      0.08445      
73100   0.71604    0.03195    0.05750    0.03095      0.58751      0.08138      0.03979      0.67121      0.08416      
73200   0.71603    0.03195    0.05750    0.03095      0.58749      0.08149      0.03980      0.67118      0.08441      
73300   0.71603    0.03195    0.05749    0.03096      0.58748      0.08153      0.03980      0.67116      0.08439      
73400   0.71602    0.03194    0.05749    0.03096      0.58749      0.08137      0.03981      0.67117      0.08421      
73500   0.71601    0.03194    0.05749    0.03094      0.58749      0.08151      0.03978      0.67118      0.08443      
73600   0.71601    0.03194    0.05748    0.03093      0.58750      0.08149      0.03976      0.67120      0.08442      
73700   0.71600    0.03194    0.05748    0.03095      0.58749      0.08136      0.03979      0.67119      0.08417      
73800   0.71599    0.03194    0.05748    0.03098      0.58744      0.08157      0.03981      0.67112      0.08444      
73900   0.71599    0.03193    0.05748    0.03097      0.58744      0.08155      0.03981      0.67113      0.08445      
74000   0.71598    0.03193    0.05748    0.03098      0.58745      0.08142      0.03984      0.67112      0.08428      
74100   0.71597    0.03193    0.05748    0.03093      0.58748      0.08155      0.03976      0.67118      0.08447      
74200   0.71597    0.03193    0.05747    0.03096      0.58744      0.08162      0.03980      0.67112      0.08457      
74300   0.71596    0.03193    0.05747    0.03097      0.58743      0.08157      0.03983      0.67110      0.08451      
74400   0.71595    0.03193    0.05747    0.03096      0.58744      0.08150      0.03980      0.67112      0.08439      
74500   0.71595    0.03193    0.05747    0.03096      0.58745      0.08143      0.03982      0.67113      0.08435      
74600   0.71594    0.03193    0.05747    0.03097      0.58744      0.08140      0.03982      0.67112      0.08425      
74700   0.71593    0.03192    0.05747    0.03093      0.58746      0.08153      0.03978      0.67117      0.08447      
74800   0.71593    0.03192    0.05746    0.03094      0.58745      0.08160      0.03977      0.67112      0.08462      
74900   0.71592    0.03192    0.05746    0.03095      0.58743      0.08155      0.03980      0.67113      0.08447      
75000   0.71591    0.03192    0.05746    0.03095      0.58742      0.08166      0.03979      0.67113      0.08460      
75100   0.71590    0.03192    0.05746    0.03095      0.58744      0.08148      0.03979      0.67114      0.08434      
75200   0.71590    0.03192    0.05745    0.03096      0.58743      0.08151      0.03980      0.67114      0.08444      
75300   0.71589    0.03191    0.05745    0.03095      0.58743      0.08140      0.03980      0.67115      0.08431      
75400   0.71589    0.03191    0.05745    0.03095      0.58743      0.08151      0.03979      0.67114      0.08439      
75500   0.71588    0.03191    0.05744    0.03095      0.58744      0.08135      0.03980      0.67115      0.08420      
75600   0.71587    0.03191    0.05744    0.03094      0.58743      0.08151      0.03979      0.67116      0.08446      
75700   0.71587    0.03190    0.05744    0.03096      0.58742      0.08140      0.03981      0.67113      0.08423      
75800   0.71586    0.03191    0.05744    0.03095      0.58741      0.08146      0.03980      0.67113      0.08436      
75900   0.71586    0.03191    0.05744    0.03093      0.58744      0.08142      0.03976      0.67116      0.08428      
76000   0.71585    0.03190    0.05743    0.03094      0.58743      0.08145      0.03980      0.67112      0.08432      
76100   0.71584    0.03190    0.05743    0.03093      0.58743      0.08145      0.03976      0.67116      0.08431      
76200   0.71583    0.03190    0.05743    0.03093      0.58742      0.08151      0.03978      0.67113      0.08444      
76300   0.71583    0.03190    0.05743    0.03094      0.58743      0.08129      0.03979      0.67115      0.08412      
76400   0.71582    0.03190    0.05743    0.03094      0.58742      0.08141      0.03979      0.67114      0.08438      
76500   0.71582    0.03190    0.05742    0.03092      0.58743      0.08154      0.03976      0.67115      0.08451      
76600   0.71581    0.03190    0.05742    0.03094      0.58742      0.08133      0.03978      0.67115      0.08416      
76700   0.71580    0.03189    0.05742    0.03094      0.58741      0.08140      0.03978      0.67113      0.08428      
76800   0.71580    0.03189    0.05742    0.03096      0.58737      0.08163      0.03982      0.67108      0.08460      
76900   0.71579    0.03189    0.05742    0.03093      0.58740      0.08152      0.03978      0.67113      0.08444      
77000   0.71579    0.03189    0.05741    0.03093      0.58740      0.08149      0.03977      0.67113      0.08441      
77100   0.71578    0.03189    0.05741    0.03095      0.58739      0.08146      0.03980      0.67110      0.08435      
77200   0.71577    0.03189    0.05741    0.03093      0.58740      0.08154      0.03977      0.67114      0.08450      
77300   0.71577    0.03188    0.05741    0.03095      0.58739      0.08141      0.03981      0.67111      0.08430      
77400   0.71576    0.03188    0.05740    0.03093      0.58738      0.08169      0.03977      0.67108      0.08471      
77500   0.71575    0.03188    0.05740    0.03094      0.58738      0.08144      0.03981      0.67108      0.08436      
77600   0.71575    0.03188    0.05740    0.03095      0.58737      0.08148      0.03981      0.67108      0.08446      
77700   0.71574    0.03187    0.05740    0.03093      0.58741      0.08132      0.03977      0.67114      0.08415      
77800   0.71573    0.03187    0.05740    0.03096      0.58736      0.08144      0.03982      0.67110      0.08429      
77900   0.71572    0.03187    0.05740    0.03093      0.58739      0.08141      0.03980      0.67113      0.08422      
78000   0.71572    0.03187    0.05739    0.03092      0.58739      0.08139      0.03978      0.67112      0.08418      
78100   0.71571    0.03187    0.05739    0.03092      0.58737      0.08150      0.03978      0.67109      0.08443      
78200   0.71570    0.03187    0.05739    0.03093      0.58738      0.08136      0.03977      0.67109      0.08426      
78300   0.71570    0.03187    0.05739    0.03095      0.58734      0.08151      0.03981      0.67106      0.08449      
78400   0.71569    0.03186    0.05739    0.03093      0.58736      0.08148      0.03976      0.67108      0.08442      
78500   0.71568    0.03186    0.05738    0.03088      0.58740      0.08154      0.03972      0.67114      0.08444      
78600   0.71568    0.03186    0.05738    0.03091      0.58737      0.08155      0.03976      0.67108      0.08447      
78700   0.71567    0.03186    0.05738    0.03093      0.58735      0.08152      0.03979      0.67106      0.08439      
78800   0.71566    0.03186    0.05738    0.03091      0.58736      0.08155      0.03975      0.67110      0.08443      
78900   0.71566    0.03185    0.05737    0.03091      0.58738      0.08144      0.03975      0.67112      0.08428      
79000   0.71565    0.03185    0.05737    0.03094      0.58734      0.08147      0.03979      0.67105      0.08432      
79100   0.71564    0.03185    0.05737    0.03092      0.58736      0.08145      0.03976      0.67110      0.08431      
79200   0.71564    0.03185    0.05737    0.03092      0.58734      0.08159      0.03976      0.67107      0.08457      
79300   0.71563    0.03185    0.05736    0.03093      0.58733      0.08157      0.03979      0.67106      0.08463      
79400   0.71563    0.03184    0.05736    0.03094      0.58732      0.08155      0.03979      0.67104      0.08449      
79500   0.71562    0.03185    0.05736    0.03093      0.58734      0.08149      0.03978      0.67106      0.08438      
79600   0.71562    0.03184    0.05736    0.03092      0.58734      0.08150      0.03977      0.67108      0.08446      
79700   0.71561    0.03184    0.05736    0.03094      0.58733      0.08143      0.03979      0.67106      0.08436      
79800   0.71560    0.03184    0.05736    0.03095      0.58733      0.08135      0.03979      0.67105      0.08420      
79900   0.71560    0.03184    0.05735    0.03095      0.58732      0.08147      0.03979      0.67102      0.08436      
80000   0.71559    0.03184    0.05735    0.03091      0.58736      0.08139      0.03974      0.67108      0.08421      
80100   0.71559    0.03184    0.05735    0.03093      0.58732      0.08150      0.03978      0.67103      0.08433      
80200   0.71558    0.03183    0.05735    0.03092      0.58733      0.08148      0.03975      0.67106      0.08437      
80300   0.71557    0.03183    0.05735    0.03091      0.58734      0.08141      0.03975      0.67107      0.08425      
80400   0.71556    0.03183    0.05734    0.03094      0.58731      0.08143      0.03978      0.67102      0.08426      
80500   0.71556    0.03182    0.05734    0.03091      0.58734      0.08148      0.03974      0.67106      0.08429      
80600   0.71555    0.03182    0.05734    0.03092      0.58733      0.08137      0.03976      0.67106      0.08416      
80700   0.71554    0.03182    0.05734    0.03093      0.58730      0.08154      0.03978      0.67102      0.08437      
80800   0.71554    0.03182    0.05734    0.03093      0.58730      0.08143      0.03979      0.67103      0.08427      
80900   0.71553    0.03182    0.05733    0.03094      0.58728      0.08149      0.03979      0.67100      0.08429      
81000   0.71552    0.03182    0.05733    0.03094      0.58729      0.08141      0.03978      0.67101      0.08427      
81100   0.71552    0.03182    0.05733    0.03092      0.58730      0.08151      0.03977      0.67099      0.08445      
