
***************************************************************
*                 Welcome to use GPUMD                        *
*    (Graphics Processing Units Molecular Dynamics)           *
*              Master version after 3.9.5                     *
*              This is the nep executable                     *
***************************************************************


---------------------------------------------------------------
GPU information:
---------------------------------------------------------------

number of GPUs = 1
Device id:                   0
    Device name:             NVIDIA A100-SXM4-80GB
    Compute capability:      8.0
    Amount of global memory: 79.2517 GB
    Number of SMs:           108

---------------------------------------------------------------
Started running nep.
---------------------------------------------------------------


---------------------------------------------------------------
Started reading nep.in.
---------------------------------------------------------------

Input or default parameters:
    (default) model_type = potential.
    (default) calculation mode = train.
    (default) use NEP version 4.
    (input)   number of atom types = 1.
        (default) type 0 (C with Z = 6) has force weight of 1.
    (default) will not add the ZBL potential.
    (input)   radial cutoff = 4.2 A.
    (input)   angular cutoff = 3.7 A.
    (default) use global cutoff for NEP.
    (default) use global cutoff for ZBL.
    (input)   n_max_radial = 10.
    (input)   n_max_angular = 15.
    (input)   basis_size_radial = 10.
    (input)   basis_size_angular = 15.
    (input)   l_max_3body = 4.
    (input)   l_max_4body = 2.
    (input)   l_max_5body = 1.
    (input)   number of neurons = 100.
    (input)   lambda_1 = 0.05.
    (input)   lambda_2 = 0.05.
    (input)   lambda_e = 1.
    (input)   lambda_f = 1.
    (input)   lambda_v = 0.1.
    (default) lambda_shear = 1.
    (default) force_delta = 0.
    (input)   batch size = 100000.
    (input)   population size = 50.
    (input)   maximum number of generations = 500000.
Some calculated parameters:
    number of radial descriptor components = 11.
    number of angular descriptor components = 96.
    total number of descriptor components = 107.
    NN architecture = 107-100-1.
    number of NN parameters to be optimized = 10901.
    number of descriptor parameters to be optimized = 377.
    total number of parameters to be optimized = 11278.

---------------------------------------------------------------
Finished reading nep.in.
---------------------------------------------------------------


---------------------------------------------------------------
Started reading train.xyz
---------------------------------------------------------------

Number of configurations = 6738.
Number of devices = 1
Number of batches = 1
Hello, I changed the batch_size from 100000 to 6738.

Batch 0:
Number of configurations = 6738.

---------------------------------------------------------------
Constructing train_set in device  0.
Total number of atoms = 379404.
Number of atoms in the largest configuration = 512.
Number of configurations having virial = 6018.
Radial descriptor with a cutoff of 4.2 A:
    Minimum number of neighbors for one atom = 0.
    Maximum number of neighbors for one atom = 98.
Angular descriptor with a cutoff of 3.7 A:
    Minimum number of neighbors for one atom = 0.
    Maximum number of neighbors for one atom = 56.
---------------------------------------------------------------


---------------------------------------------------------------
Started reading test.xyz
---------------------------------------------------------------

Number of configurations = 450.

---------------------------------------------------------------
Constructing test_set in device  0.
Total number of atoms = 28337.
Number of atoms in the largest configuration = 216.
Number of configurations having virial = 450.
Radial descriptor with a cutoff of 4.2 A:
    Minimum number of neighbors for one atom = 5.
    Maximum number of neighbors for one atom = 78.
Angular descriptor with a cutoff of 3.7 A:
    Minimum number of neighbors for one atom = 4.
    Maximum number of neighbors for one atom = 46.
---------------------------------------------------------------


---------------------------------------------------------------
Time used for initialization = 2.189958 s.
---------------------------------------------------------------


---------------------------------------------------------------
Started training.
---------------------------------------------------------------

Step    Total-Loss L1Reg-Loss L2Reg-Loss RMSE-E-Train RMSE-F-Train RMSE-V-Train RMSE-E-Test  RMSE-F-Test  RMSE-V-Test  
100     0.73349    0.03776    0.06278    0.03165      0.59281      0.08489      0.04067      0.67663      0.08751      
200     0.73348    0.03775    0.06278    0.03164      0.59289      0.08422      0.04066      0.67679      0.08689      
300     0.73348    0.03775    0.06278    0.03155      0.59301      0.08387      0.04059      0.67688      0.08571      
400     0.73347    0.03774    0.06278    0.03159      0.59298      0.08390      0.04062      0.67682      0.08560      
500     0.73343    0.03772    0.06276    0.03163      0.59289      0.08426      0.04066      0.67673      0.08620      
600     0.73343    0.03771    0.06276    0.03152      0.59309      0.08345      0.04052      0.67698      0.08517      
700     0.73342    0.03771    0.06275    0.03152      0.59296      0.08472      0.04055      0.67675      0.08669      
800     0.73342    0.03772    0.06275    0.03152      0.59298      0.08449      0.04048      0.67684      0.08623      
900     0.73339    0.03769    0.06274    0.03147      0.59304      0.08443      0.04046      0.67695      0.08675      
1000    0.73337    0.03769    0.06274    0.03155      0.59291      0.08460      0.04059      0.67681      0.08694      
1100    0.73334    0.03767    0.06273    0.03161      0.59294      0.08389      0.04064      0.67678      0.08600      
1200    0.73333    0.03768    0.06274    0.03152      0.59291      0.08483      0.04048      0.67680      0.08759      
1300    0.73332    0.03769    0.06274    0.03152      0.59295      0.08424      0.04054      0.67689      0.08686      
1400    0.73332    0.03767    0.06273    0.03157      0.59292      0.08429      0.04060      0.67686      0.08697      
1500    0.73328    0.03766    0.06272    0.03161      0.59288      0.08422      0.04062      0.67685      0.08668      
1600    0.73326    0.03766    0.06271    0.03158      0.59288      0.08437      0.04053      0.67682      0.08691      
1700    0.73323    0.03763    0.06270    0.03149      0.59295      0.08449      0.04048      0.67690      0.08692      
1800    0.73323    0.03763    0.06269    0.03157      0.59288      0.08466      0.04059      0.67673      0.08737      
1900    0.73322    0.03762    0.06269    0.03159      0.59284      0.08471      0.04054      0.67667      0.08728      
2000    0.73320    0.03761    0.06268    0.03160      0.59285      0.08455      0.04056      0.67668      0.08701      
2100    0.73318    0.03761    0.06268    0.03147      0.59299      0.08427      0.04046      0.67683      0.08663      
2200    0.73317    0.03760    0.06269    0.03155      0.59284      0.08489      0.04050      0.67670      0.08786      
2300    0.73314    0.03760    0.06268    0.03152      0.59293      0.08410      0.04046      0.67688      0.08629      
2400    0.73314    0.03759    0.06267    0.03154      0.59291      0.08432      0.04046      0.67679      0.08658      
2500    0.73310    0.03757    0.06267    0.03156      0.59282      0.08479      0.04046      0.67669      0.08774      
2600    0.73310    0.03759    0.06268    0.03159      0.59284      0.08412      0.04055      0.67670      0.08627      
2700    0.73311    0.03758    0.06267    0.03149      0.59292      0.08462      0.04046      0.67685      0.08707      
2800    0.73309    0.03759    0.06267    0.03155      0.59285      0.08438      0.04054      0.67676      0.08656      
2900    0.73308    0.03759    0.06267    0.03155      0.59285      0.08416      0.04047      0.67678      0.08618      
3000    0.73308    0.03759    0.06267    0.03153      0.59284      0.08458      0.04045      0.67674      0.08715      
3100    0.73307    0.03758    0.06267    0.03165      0.59281      0.08358      0.04057      0.67674      0.08525      
3200    0.73305    0.03758    0.06266    0.03151      0.59290      0.08405      0.04043      0.67687      0.08617      
3300    0.73304    0.03759    0.06266    0.03154      0.59282      0.08427      0.04048      0.67676      0.08627      
3400    0.73301    0.03756    0.06265    0.03155      0.59283      0.08416      0.04050      0.67680      0.08615      
3500    0.73299    0.03757    0.06264    0.03157      0.59281      0.08403      0.04055      0.67669      0.08642      
3600    0.73299    0.03757    0.06264    0.03157      0.59272      0.08487      0.04054      0.67653      0.08755      
3700    0.73299    0.03756    0.06264    0.03161      0.59273      0.08443      0.04055      0.67663      0.08662      
3800    0.73297    0.03757    0.06264    0.03166      0.59267      0.08431      0.04063      0.67654      0.08628      
3900    0.73295    0.03756    0.06263    0.03150      0.59280      0.08468      0.04042      0.67676      0.08735      
4000    0.73292    0.03754    0.06262    0.03157      0.59281      0.08375      0.04054      0.67686      0.08569      
4100    0.73294    0.03756    0.06262    0.03156      0.59274      0.08457      0.04050      0.67672      0.08691      
4200    0.73294    0.03756    0.06262    0.03168      0.59269      0.08395      0.04072      0.67669      0.08594      
4300    0.73293    0.03756    0.06260    0.03157      0.59277      0.08432      0.04057      0.67681      0.08666      
4400    0.73289    0.03754    0.06260    0.03158      0.59276      0.08411      0.04055      0.67679      0.08632      
4500    0.73289    0.03752    0.06259    0.03150      0.59274      0.08539      0.04046      0.67674      0.08803      
4600    0.73286    0.03750    0.06258    0.03150      0.59285      0.08415      0.04047      0.67697      0.08618      
4700    0.73282    0.03749    0.06258    0.03156      0.59275      0.08447      0.04057      0.67674      0.08682      
4800    0.73280    0.03748    0.06257    0.03158      0.59270      0.08464      0.04051      0.67665      0.08733      
4900    0.73281    0.03747    0.06256    0.03158      0.59273      0.08461      0.04057      0.67672      0.08697      
5000    0.73279    0.03747    0.06256    0.03154      0.59278      0.08442      0.04049      0.67677      0.08671      
5100    0.73278    0.03746    0.06256    0.03151      0.59278      0.08475      0.04040      0.67680      0.08727      
5200    0.73278    0.03746    0.06256    0.03158      0.59280      0.08383      0.04053      0.67682      0.08583      
5300    0.73278    0.03748    0.06256    0.03161      0.59266      0.08468      0.04061      0.67662      0.08715      
5400    0.73273    0.03746    0.06255    0.03148      0.59277      0.08472      0.04043      0.67679      0.08710      
5500    0.73273    0.03746    0.06255    0.03164      0.59265      0.08427      0.04055      0.67659      0.08675      
5600    0.73271    0.03744    0.06254    0.03154      0.59282      0.08368      0.04053      0.67686      0.08560      
5700    0.73270    0.03744    0.06254    0.03160      0.59276      0.08370      0.04056      0.67673      0.08571      
5800    0.73268    0.03744    0.06253    0.03151      0.59271      0.08491      0.04045      0.67675      0.08762      
5900    0.73266    0.03743    0.06253    0.03151      0.59274      0.08450      0.04045      0.67674      0.08669      
6000    0.73263    0.03743    0.06253    0.03156      0.59268      0.08433      0.04049      0.67666      0.08680      
6100    0.73262    0.03741    0.06252    0.03156      0.59270      0.08421      0.04052      0.67676      0.08650      
6200    0.73259    0.03740    0.06251    0.03158      0.59267      0.08431      0.04052      0.67670      0.08644      
6300    0.73260    0.03739    0.06250    0.03151      0.59272      0.08475      0.04047      0.67671      0.08685      
6400    0.73257    0.03738    0.06249    0.03154      0.59277      0.08390      0.04050      0.67668      0.08617      
6500    0.73255    0.03737    0.06249    0.03151      0.59275      0.08437      0.04049      0.67665      0.08672      
6600    0.73251    0.03736    0.06248    0.03146      0.59280      0.08407      0.04039      0.67681      0.08646      
6700    0.73248    0.03734    0.06248    0.03150      0.59276      0.08418      0.04047      0.67681      0.08636      
6800    0.73246    0.03734    0.06247    0.03152      0.59269      0.08429      0.04050      0.67670      0.08615      
6900    0.73245    0.03732    0.06246    0.03152      0.59270      0.08454      0.04048      0.67667      0.08698      
7000    0.73244    0.03732    0.06246    0.03155      0.59267      0.08433      0.04054      0.67660      0.08657      
7100    0.73242    0.03732    0.06246    0.03156      0.59266      0.08425      0.04053      0.67660      0.08653      
7200    0.73240    0.03733    0.06245    0.03146      0.59273      0.08435      0.04047      0.67666      0.08680      
7300    0.73238    0.03731    0.06244    0.03148      0.59277      0.08385      0.04038      0.67670      0.08629      
7400    0.73235    0.03730    0.06243    0.03145      0.59274      0.08425      0.04041      0.67671      0.08669      
7500    0.73235    0.03731    0.06243    0.03151      0.59274      0.08360      0.04043      0.67675      0.08580      
7600    0.73233    0.03728    0.06241    0.03151      0.59272      0.08411      0.04049      0.67678      0.08643      
7700    0.73233    0.03728    0.06242    0.03157      0.59257      0.08497      0.04052      0.67645      0.08765      
7800    0.73229    0.03726    0.06241    0.03143      0.59274      0.08445      0.04037      0.67671      0.08681      
7900    0.73229    0.03726    0.06240    0.03146      0.59276      0.08406      0.04044      0.67672      0.08588      
8000    0.73227    0.03727    0.06240    0.03153      0.59269      0.08378      0.04049      0.67664      0.08556      
8100    0.73225    0.03727    0.06239    0.03151      0.59267      0.08407      0.04046      0.67662      0.08652      
8200    0.73223    0.03725    0.06239    0.03149      0.59270      0.08406      0.04050      0.67669      0.08619      
8300    0.73219    0.03723    0.06239    0.03147      0.59269      0.08402      0.04043      0.67674      0.08608      
8400    0.73219    0.03721    0.06238    0.03156      0.59264      0.08399      0.04054      0.67665      0.08601      
8500    0.73219    0.03723    0.06238    0.03145      0.59271      0.08424      0.04043      0.67670      0.08623      
8600    0.73216    0.03720    0.06237    0.03150      0.59265      0.08428      0.04048      0.67664      0.08664      
8700    0.73214    0.03722    0.06237    0.03147      0.59270      0.08387      0.04044      0.67671      0.08577      
8800    0.73214    0.03722    0.06237    0.03150      0.59262      0.08431      0.04049      0.67662      0.08649      
8900    0.73211    0.03720    0.06236    0.03148      0.59261      0.08466      0.04040      0.67662      0.08743      
9000    0.73210    0.03718    0.06236    0.03145      0.59268      0.08428      0.04040      0.67672      0.08688      
9100    0.73204    0.03716    0.06235    0.03151      0.59261      0.08413      0.04047      0.67658      0.08649      
9200    0.73203    0.03716    0.06235    0.03145      0.59265      0.08413      0.04041      0.67662      0.08619      
9300    0.73201    0.03716    0.06234    0.03151      0.59259      0.08414      0.04047      0.67664      0.08627      
9400    0.73200    0.03715    0.06234    0.03149      0.59256      0.08441      0.04045      0.67665      0.08685      
9500    0.73200    0.03715    0.06233    0.03150      0.59263      0.08394      0.04045      0.67671      0.08622      
9600    0.73200    0.03715    0.06233    0.03151      0.59259      0.08419      0.04046      0.67666      0.08652      
9700    0.73198    0.03713    0.06232    0.03155      0.59259      0.08388      0.04051      0.67656      0.08623      
9800    0.73198    0.03714    0.06231    0.03153      0.59256      0.08430      0.04051      0.67649      0.08688      
9900    0.73196    0.03713    0.06231    0.03150      0.59263      0.08387      0.04045      0.67657      0.08624      
10000   0.73195    0.03713    0.06230    0.03143      0.59267      0.08414      0.04039      0.67669      0.08660      
10100   0.73193    0.03713    0.06230    0.03144      0.59263      0.08431      0.04038      0.67665      0.08690      
10200   0.73191    0.03712    0.06230    0.03146      0.59257      0.08459      0.04045      0.67658      0.08744      
10300   0.73188    0.03712    0.06229    0.03146      0.59258      0.08425      0.04042      0.67658      0.08679      
10400   0.73189    0.03713    0.06229    0.03157      0.59249      0.08417      0.04054      0.67647      0.08674      
10500   0.73189    0.03714    0.06229    0.03145      0.59256      0.08441      0.04042      0.67658      0.08697      
10600   0.73187    0.03714    0.06229    0.03146      0.59258      0.08408      0.04038      0.67656      0.08666      
10700   0.73184    0.03711    0.06227    0.03148      0.59264      0.08337      0.04047      0.67665      0.08522      
10800   0.73183    0.03711    0.06227    0.03142      0.59267      0.08365      0.04041      0.67668      0.08591      
10900   0.73180    0.03710    0.06226    0.03147      0.59257      0.08387      0.04043      0.67662      0.08623      
11000   0.73180    0.03709    0.06225    0.03143      0.59264      0.08382      0.04042      0.67665      0.08600      
11100   0.73176    0.03708    0.06225    0.03150      0.59250      0.08427      0.04048      0.67656      0.08704      
11200   0.73176    0.03709    0.06225    0.03147      0.59252      0.08437      0.04046      0.67650      0.08716      
11300   0.73175    0.03707    0.06224    0.03152      0.59258      0.08338      0.04048      0.67655      0.08551      
11400   0.73172    0.03709    0.06223    0.03149      0.59248      0.08432      0.04048      0.67646      0.08709      
11500   0.73170    0.03706    0.06222    0.03154      0.59243      0.08451      0.04051      0.67642      0.08757      
11600   0.73170    0.03707    0.06222    0.03149      0.59249      0.08436      0.04043      0.67650      0.08710      
11700   0.73169    0.03705    0.06220    0.03150      0.59256      0.08386      0.04048      0.67654      0.08603      
11800   0.73166    0.03703    0.06220    0.03157      0.59246      0.08402      0.04053      0.67644      0.08640      
11900   0.73165    0.03703    0.06220    0.03148      0.59253      0.08419      0.04046      0.67656      0.08672      
12000   0.73165    0.03704    0.06219    0.03149      0.59254      0.08385      0.04048      0.67660      0.08623      
12100   0.73165    0.03705    0.06218    0.03148      0.59252      0.08428      0.04046      0.67652      0.08697      
12200   0.73164    0.03704    0.06218    0.03147      0.59255      0.08397      0.04046      0.67651      0.08620      
12300   0.73163    0.03705    0.06218    0.03150      0.59244      0.08460      0.04044      0.67641      0.08713      
12400   0.73163    0.03706    0.06218    0.03154      0.59243      0.08419      0.04052      0.67640      0.08642      
12500   0.73161    0.03706    0.06217    0.03153      0.59245      0.08403      0.04054      0.67641      0.08607      
12600   0.73158    0.03703    0.06216    0.03156      0.59235      0.08471      0.04050      0.67629      0.08722      
12700   0.73155    0.03703    0.06215    0.03156      0.59242      0.08393      0.04057      0.67637      0.08638      
12800   0.73153    0.03701    0.06214    0.03149      0.59250      0.08393      0.04047      0.67649      0.08625      
12900   0.73151    0.03700    0.06213    0.03139      0.59259      0.08400      0.04035      0.67651      0.08644      
13000   0.73153    0.03698    0.06213    0.03144      0.59258      0.08402      0.04036      0.67646      0.08682      
13100   0.73150    0.03698    0.06213    0.03148      0.59251      0.08404      0.04043      0.67640      0.08669      
13200   0.73149    0.03698    0.06213    0.03143      0.59250      0.08441      0.04035      0.67633      0.08706      
13300   0.73148    0.03698    0.06212    0.03141      0.59258      0.08406      0.04034      0.67648      0.08646      
13400   0.73148    0.03698    0.06212    0.03142      0.59256      0.08406      0.04034      0.67653      0.08653      
13500   0.73146    0.03696    0.06211    0.03149      0.59243      0.08467      0.04040      0.67635      0.08729      
13600   0.73143    0.03696    0.06211    0.03148      0.59241      0.08462      0.04044      0.67631      0.08741      
13700   0.73142    0.03696    0.06210    0.03148      0.59250      0.08380      0.04042      0.67641      0.08597      
13800   0.73142    0.03696    0.06211    0.03148      0.59248      0.08398      0.04040      0.67636      0.08660      
13900   0.73139    0.03695    0.06210    0.03143      0.59248      0.08419      0.04036      0.67639      0.08704      
14000   0.73137    0.03695    0.06209    0.03150      0.59243      0.08395      0.04045      0.67631      0.08670      
14100   0.73136    0.03694    0.06209    0.03145      0.59250      0.08389      0.04036      0.67648      0.08674      
14200   0.73135    0.03694    0.06209    0.03156      0.59236      0.08393      0.04052      0.67634      0.08647      
14300   0.73133    0.03692    0.06208    0.03155      0.59240      0.08379      0.04054      0.67643      0.08636      
14400   0.73132    0.03691    0.06207    0.03151      0.59243      0.08396      0.04045      0.67647      0.08631      
14500   0.73131    0.03690    0.06207    0.03155      0.59236      0.08438      0.04054      0.67636      0.08722      
14600   0.73128    0.03689    0.06206    0.03148      0.59246      0.08389      0.04047      0.67651      0.08664      
14700   0.73126    0.03689    0.06206    0.03154      0.59237      0.08392      0.04052      0.67638      0.08642      
14800   0.73124    0.03688    0.06206    0.03143      0.59243      0.08447      0.04040      0.67647      0.08710      
14900   0.73120    0.03686    0.06205    0.03141      0.59245      0.08434      0.04037      0.67651      0.08687      
15000   0.73119    0.03686    0.06205    0.03142      0.59242      0.08442      0.04040      0.67641      0.08719      
15100   0.73119    0.03686    0.06205    0.03151      0.59237      0.08400      0.04051      0.67636      0.08633      
15200   0.73118    0.03685    0.06205    0.03144      0.59241      0.08433      0.04039      0.67646      0.08693      
15300   0.73115    0.03684    0.06204    0.03145      0.59237      0.08442      0.04038      0.67641      0.08718      
15400   0.73115    0.03686    0.06204    0.03151      0.59231      0.08428      0.04048      0.67624      0.08727      
15500   0.73113    0.03684    0.06204    0.03146      0.59240      0.08384      0.04041      0.67647      0.08657      
15600   0.73112    0.03683    0.06203    0.03140      0.59244      0.08406      0.04034      0.67652      0.08683      
15700   0.73109    0.03682    0.06203    0.03148      0.59236      0.08397      0.04041      0.67643      0.08689      
15800   0.73107    0.03682    0.06203    0.03141      0.59241      0.08401      0.04036      0.67647      0.08695      
15900   0.73105    0.03680    0.06202    0.03143      0.59239      0.08407      0.04039      0.67637      0.08684      
16000   0.73105    0.03680    0.06201    0.03141      0.59246      0.08371      0.04041      0.67648      0.08613      
16100   0.73103    0.03679    0.06200    0.03148      0.59239      0.08374      0.04051      0.67635      0.08655      
16200   0.73101    0.03679    0.06199    0.03155      0.59230      0.08385      0.04057      0.67620      0.08676      
16300   0.73102    0.03678    0.06198    0.03146      0.59243      0.08370      0.04047      0.67639      0.08630      
16400   0.73097    0.03676    0.06198    0.03141      0.59241      0.08410      0.04037      0.67632      0.08699      
16500   0.73099    0.03677    0.06197    0.03147      0.59239      0.08389      0.04045      0.67630      0.08658      
16600   0.73097    0.03676    0.06197    0.03141      0.59245      0.08383      0.04037      0.67637      0.08618      
16700   0.73095    0.03675    0.06196    0.03148      0.59236      0.08389      0.04045      0.67622      0.08684      
16800   0.73092    0.03674    0.06196    0.03147      0.59229      0.08460      0.04039      0.67626      0.08747      
16900   0.73089    0.03672    0.06195    0.03142      0.59242      0.08381      0.04040      0.67635      0.08614      
17000   0.73087    0.03673    0.06195    0.03147      0.59234      0.08391      0.04040      0.67622      0.08623      
17100   0.73085    0.03671    0.06194    0.03152      0.59223      0.08461      0.04051      0.67604      0.08732      
17200   0.73084    0.03671    0.06194    0.03151      0.59233      0.08360      0.04051      0.67623      0.08566      
17300   0.73084    0.03670    0.06193    0.03150      0.59235      0.08358      0.04046      0.67625      0.08588      
17400   0.73084    0.03670    0.06192    0.03144      0.59239      0.08389      0.04037      0.67631      0.08651      
17500   0.73084    0.03670    0.06192    0.03155      0.59231      0.08350      0.04054      0.67623      0.08584      
17600   0.73081    0.03670    0.06192    0.03148      0.59230      0.08414      0.04045      0.67617      0.08676      
17700   0.73081    0.03669    0.06191    0.03148      0.59232      0.08407      0.04041      0.67615      0.08693      
17800   0.73079    0.03670    0.06190    0.03144      0.59231      0.08434      0.04041      0.67617      0.08723      
17900   0.73078    0.03669    0.06190    0.03143      0.59238      0.08382      0.04036      0.67620      0.08647      
18000   0.73077    0.03669    0.06190    0.03146      0.59232      0.08410      0.04044      0.67615      0.08692      
18100   0.73075    0.03668    0.06189    0.03145      0.59230      0.08431      0.04041      0.67610      0.08747      
18200   0.73074    0.03667    0.06188    0.03147      0.59235      0.08364      0.04047      0.67624      0.08600      
18300   0.73074    0.03668    0.06188    0.03148      0.59234      0.08349      0.04044      0.67622      0.08590      
18400   0.73074    0.03667    0.06187    0.03154      0.59230      0.08345      0.04055      0.67611      0.08614      
18500   0.73074    0.03668    0.06187    0.03146      0.59236      0.08371      0.04042      0.67618      0.08639      
18600   0.73069    0.03666    0.06186    0.03143      0.59237      0.08366      0.04041      0.67630      0.08614      
18700   0.73069    0.03665    0.06185    0.03157      0.59220      0.08411      0.04059      0.67608      0.08676      
18800   0.73068    0.03666    0.06185    0.03153      0.59229      0.08346      0.04056      0.67619      0.08597      
18900   0.73068    0.03666    0.06184    0.03143      0.59237      0.08372      0.04042      0.67625      0.08605      
19000   0.73066    0.03667    0.06184    0.03152      0.59228      0.08355      0.04048      0.67618      0.08571      
19100   0.73066    0.03665    0.06184    0.03145      0.59232      0.08394      0.04039      0.67621      0.08643      
19200   0.73065    0.03666    0.06184    0.03141      0.59234      0.08400      0.04037      0.67619      0.08668      
19300   0.73064    0.03665    0.06184    0.03147      0.59230      0.08379      0.04049      0.67623      0.08642      
19400   0.73063    0.03664    0.06184    0.03151      0.59227      0.08374      0.04047      0.67615      0.08631      
19500   0.73061    0.03664    0.06183    0.03140      0.59236      0.08386      0.04040      0.67633      0.08657      
19600   0.73057    0.03662    0.06183    0.03148      0.59226      0.08372      0.04048      0.67619      0.08624      
19700   0.73057    0.03661    0.06183    0.03150      0.59224      0.08382      0.04052      0.67613      0.08629      
19800   0.73056    0.03661    0.06182    0.03146      0.59232      0.08334      0.04046      0.67622      0.08562      
19900   0.73055    0.03661    0.06182    0.03144      0.59227      0.08402      0.04040      0.67618      0.08677      
20000   0.73052    0.03659    0.06181    0.03141      0.59230      0.08416      0.04035      0.67615      0.08679      
20100   0.73050    0.03659    0.06181    0.03146      0.59224      0.08400      0.04042      0.67608      0.08649      
20200   0.73049    0.03659    0.06181    0.03145      0.59222      0.08423      0.04038      0.67610      0.08682      
20300   0.73050    0.03658    0.06181    0.03149      0.59226      0.08359      0.04042      0.67620      0.08562      
20400   0.73048    0.03659    0.06181    0.03144      0.59227      0.08380      0.04040      0.67622      0.08603      
20500   0.73048    0.03660    0.06181    0.03140      0.59225      0.08427      0.04039      0.67612      0.08681      
20600   0.73049    0.03660    0.06181    0.03140      0.59229      0.08389      0.04038      0.67616      0.08640      
20700   0.73047    0.03658    0.06180    0.03152      0.59220      0.08374      0.04049      0.67609      0.08614      
20800   0.73046    0.03657    0.06179    0.03155      0.59214      0.08400      0.04055      0.67604      0.08636      
20900   0.73045    0.03657    0.06179    0.03150      0.59222      0.08374      0.04048      0.67613      0.08612      
21000   0.73046    0.03658    0.06178    0.03146      0.59225      0.08387      0.04042      0.67622      0.08623      
21100   0.73044    0.03658    0.06178    0.03152      0.59218      0.08387      0.04053      0.67610      0.08599      
21200   0.73041    0.03655    0.06178    0.03147      0.59221      0.08397      0.04046      0.67613      0.08614      
21300   0.73039    0.03655    0.06177    0.03140      0.59228      0.08392      0.04037      0.67619      0.08599      
21400   0.73039    0.03655    0.06177    0.03145      0.59226      0.08357      0.04042      0.67615      0.08571      
21500   0.73036    0.03653    0.06176    0.03150      0.59214      0.08420      0.04052      0.67607      0.08652      
21600   0.73036    0.03653    0.06176    0.03151      0.59213      0.08422      0.04050      0.67593      0.08675      
21700   0.73033    0.03652    0.06176    0.03146      0.59222      0.08371      0.04044      0.67613      0.08589      
21800   0.73033    0.03652    0.06176    0.03146      0.59223      0.08359      0.04044      0.67615      0.08559      
21900   0.73031    0.03653    0.06176    0.03141      0.59220      0.08418      0.04041      0.67610      0.08653      
22000   0.73030    0.03651    0.06175    0.03142      0.59223      0.08378      0.04034      0.67622      0.08599      
22100   0.73029    0.03651    0.06176    0.03144      0.59218      0.08399      0.04041      0.67614      0.08669      
22200   0.73027    0.03649    0.06175    0.03136      0.59230      0.08374      0.04030      0.67635      0.08643      
22300   0.73026    0.03650    0.06175    0.03141      0.59225      0.08350      0.04034      0.67628      0.08597      
22400   0.73024    0.03650    0.06174    0.03139      0.59223      0.08378      0.04036      0.67619      0.08622      
22500   0.73023    0.03649    0.06174    0.03141      0.59216      0.08418      0.04038      0.67619      0.08664      
22600   0.73022    0.03649    0.06174    0.03143      0.59221      0.08347      0.04036      0.67627      0.08574      
22700   0.73019    0.03648    0.06174    0.03144      0.59212      0.08406      0.04040      0.67614      0.08676      
22800   0.73017    0.03648    0.06173    0.03136      0.59220      0.08407      0.04035      0.67618      0.08676      
22900   0.73018    0.03649    0.06173    0.03135      0.59221      0.08410      0.04027      0.67618      0.08680      
23000   0.73017    0.03649    0.06173    0.03147      0.59214      0.08345      0.04044      0.67607      0.08570      
23100   0.73016    0.03649    0.06173    0.03146      0.59214      0.08358      0.04042      0.67606      0.08615      
23200   0.73015    0.03648    0.06173    0.03138      0.59214      0.08409      0.04032      0.67605      0.08663      
23300   0.73013    0.03648    0.06173    0.03137      0.59213      0.08423      0.04030      0.67603      0.08700      
23400   0.73012    0.03649    0.06172    0.03141      0.59214      0.08365      0.04035      0.67602      0.08622      
23500   0.73009    0.03647    0.06172    0.03148      0.59201      0.08413      0.04046      0.67587      0.08683      
23600   0.73010    0.03647    0.06171    0.03146      0.59211      0.08345      0.04046      0.67596      0.08587      
23700   0.73009    0.03645    0.06170    0.03146      0.59210      0.08367      0.04039      0.67597      0.08611      
23800   0.73007    0.03645    0.06170    0.03141      0.59214      0.08368      0.04034      0.67610      0.08625      
23900   0.73006    0.03644    0.06169    0.03147      0.59208      0.08380      0.04042      0.67598      0.08638      
24000   0.73004    0.03643    0.06168    0.03142      0.59215      0.08359      0.04035      0.67608      0.08614      
24100   0.73003    0.03642    0.06168    0.03140      0.59214      0.08383      0.04035      0.67608      0.08636      
24200   0.73001    0.03641    0.06168    0.03137      0.59219      0.08366      0.04031      0.67618      0.08591      
24300   0.73001    0.03640    0.06167    0.03142      0.59217      0.08354      0.04035      0.67614      0.08587      
24400   0.72999    0.03640    0.06167    0.03147      0.59212      0.08326      0.04044      0.67601      0.08533      
24500   0.72998    0.03640    0.06167    0.03151      0.59203      0.08364      0.04051      0.67586      0.08612      
24600   0.72998    0.03640    0.06166    0.03136      0.59217      0.08385      0.04031      0.67606      0.08632      
24700   0.72997    0.03640    0.06165    0.03146      0.59208      0.08384      0.04041      0.67592      0.08632      
24800   0.72997    0.03639    0.06165    0.03138      0.59217      0.08385      0.04036      0.67602      0.08644      
24900   0.72994    0.03638    0.06164    0.03132      0.59221      0.08383      0.04031      0.67615      0.08650      
25000   0.72993    0.03638    0.06164    0.03146      0.59210      0.08354      0.04044      0.67593      0.08601      
25100   0.72993    0.03639    0.06164    0.03141      0.59216      0.08334      0.04037      0.67604      0.08583      
25200   0.72991    0.03637    0.06163    0.03139      0.59216      0.08354      0.04035      0.67606      0.08598      
25300   0.72991    0.03637    0.06163    0.03140      0.59215      0.08361      0.04035      0.67608      0.08609      
25400   0.72990    0.03637    0.06163    0.03136      0.59211      0.08433      0.04030      0.67601      0.08710      
25500   0.72989    0.03637    0.06161    0.03144      0.59209      0.08387      0.04045      0.67596      0.08647      
25600   0.72988    0.03637    0.06161    0.03144      0.59206      0.08407      0.04040      0.67599      0.08686      
25700   0.72985    0.03636    0.06160    0.03143      0.59207      0.08392      0.04044      0.67600      0.08661      
25800   0.72983    0.03635    0.06160    0.03143      0.59211      0.08349      0.04036      0.67596      0.08606      
25900   0.72982    0.03635    0.06159    0.03139      0.59210      0.08382      0.04033      0.67599      0.08629      
26000   0.72981    0.03635    0.06159    0.03141      0.59210      0.08362      0.04041      0.67599      0.08614      
26100   0.72979    0.03634    0.06158    0.03144      0.59210      0.08333      0.04042      0.67600      0.08550      
26200   0.72978    0.03633    0.06158    0.03152      0.59196      0.08393      0.04053      0.67580      0.08620      
26300   0.72977    0.03632    0.06157    0.03144      0.59202      0.08420      0.04040      0.67584      0.08674      
26400   0.72976    0.03632    0.06157    0.03147      0.59205      0.08351      0.04044      0.67595      0.08556      
26500   0.72974    0.03631    0.06157    0.03155      0.59198      0.08341      0.04055      0.67581      0.08545      
26600   0.72972    0.03631    0.06157    0.03145      0.59200      0.08383      0.04043      0.67585      0.08597      
26700   0.72971    0.03632    0.06157    0.03140      0.59201      0.08408      0.04035      0.67587      0.08672      
26800   0.72971    0.03632    0.06157    0.03140      0.59201      0.08414      0.04035      0.67591      0.08654      
26900   0.72970    0.03630    0.06156    0.03144      0.59201      0.08397      0.04034      0.67601      0.08626      
27000   0.72968    0.03629    0.06155    0.03148      0.59203      0.08328      0.04040      0.67592      0.08528      
27100   0.72967    0.03628    0.06155    0.03143      0.59200      0.08411      0.04039      0.67588      0.08645      
27200   0.72965    0.03627    0.06155    0.03138      0.59209      0.08356      0.04033      0.67608      0.08564      
27300   0.72965    0.03627    0.06154    0.03140      0.59202      0.08414      0.04032      0.67598      0.08671      
27400   0.72962    0.03626    0.06154    0.03149      0.59199      0.08345      0.04048      0.67590      0.08529      
27500   0.72961    0.03626    0.06153    0.03144      0.59204      0.08337      0.04037      0.67602      0.08530      
27600   0.72960    0.03627    0.06153    0.03144      0.59199      0.08373      0.04040      0.67579      0.08569      
27700   0.72959    0.03625    0.06152    0.03144      0.59198      0.08391      0.04045      0.67586      0.08590      
27800   0.72959    0.03626    0.06152    0.03144      0.59195      0.08407      0.04040      0.67584      0.08643      
27900   0.72957    0.03624    0.06152    0.03144      0.59204      0.08336      0.04045      0.67595      0.08523      
28000   0.72954    0.03624    0.06152    0.03145      0.59197      0.08368      0.04044      0.67583      0.08566      
28100   0.72954    0.03624    0.06151    0.03141      0.59201      0.08383      0.04039      0.67593      0.08608      
28200   0.72953    0.03623    0.06150    0.03140      0.59201      0.08378      0.04039      0.67596      0.08597      
28300   0.72949    0.03622    0.06149    0.03147      0.59195      0.08366      0.04044      0.67583      0.08584      
28400   0.72949    0.03622    0.06150    0.03145      0.59199      0.08336      0.04043      0.67584      0.08544      
28500   0.72949    0.03623    0.06149    0.03148      0.59191      0.08366      0.04046      0.67579      0.08602      
28600   0.72948    0.03622    0.06149    0.03148      0.59198      0.08308      0.04044      0.67582      0.08492      
28700   0.72947    0.03622    0.06149    0.03134      0.59209      0.08334      0.04033      0.67598      0.08526      
28800   0.72946    0.03622    0.06149    0.03142      0.59192      0.08413      0.04039      0.67578      0.08678      
28900   0.72943    0.03619    0.06149    0.03137      0.59201      0.08371      0.04035      0.67591      0.08606      
29000   0.72942    0.03620    0.06148    0.03143      0.59196      0.08361      0.04044      0.67581      0.08576      
29100   0.72942    0.03620    0.06148    0.03145      0.59194      0.08342      0.04043      0.67579      0.08563      
29200   0.72941    0.03619    0.06148    0.03146      0.59196      0.08331      0.04044      0.67583      0.08522      
29300   0.72941    0.03620    0.06148    0.03147      0.59187      0.08395      0.04049      0.67569      0.08641      
29400   0.72938    0.03619    0.06147    0.03144      0.59194      0.08345      0.04042      0.67576      0.08585      
29500   0.72937    0.03620    0.06147    0.03135      0.59195      0.08404      0.04033      0.67577      0.08652      
29600   0.72937    0.03620    0.06147    0.03140      0.59192      0.08383      0.04037      0.67575      0.08609      
29700   0.72936    0.03620    0.06146    0.03136      0.59203      0.08319      0.04032      0.67594      0.08522      
29800   0.72935    0.03619    0.06145    0.03144      0.59191      0.08350      0.04042      0.67583      0.08575      
29900   0.72931    0.03617    0.06145    0.03134      0.59193      0.08417      0.04030      0.67588      0.08675      
30000   0.72930    0.03616    0.06144    0.03138      0.59192      0.08400      0.04038      0.67584      0.08634      
30100   0.72931    0.03616    0.06144    0.03146      0.59187      0.08378      0.04050      0.67577      0.08616      
30200   0.72929    0.03616    0.06144    0.03145      0.59186      0.08382      0.04046      0.67576      0.08618      
30300   0.72928    0.03615    0.06144    0.03139      0.59190      0.08407      0.04038      0.67583      0.08672      
30400   0.72925    0.03615    0.06143    0.03137      0.59192      0.08379      0.04032      0.67581      0.08611      
30500   0.72924    0.03614    0.06144    0.03128      0.59203      0.08360      0.04022      0.67594      0.08555      
30600   0.72922    0.03615    0.06143    0.03139      0.59191      0.08344      0.04034      0.67577      0.08554      
30700   0.72923    0.03614    0.06143    0.03139      0.59190      0.08364      0.04034      0.67570      0.08591      
30800   0.72921    0.03613    0.06143    0.03140      0.59185      0.08396      0.04034      0.67566      0.08646      
30900   0.72918    0.03611    0.06142    0.03138      0.59191      0.08366      0.04040      0.67571      0.08581      
31000   0.72917    0.03610    0.06141    0.03140      0.59187      0.08379      0.04035      0.67570      0.08621      
31100   0.72914    0.03609    0.06141    0.03136      0.59190      0.08385      0.04031      0.67579      0.08616      
31200   0.72915    0.03610    0.06141    0.03135      0.59194      0.08351      0.04030      0.67579      0.08571      
31300   0.72913    0.03610    0.06140    0.03136      0.59190      0.08368      0.04028      0.67577      0.08601      
31400   0.72911    0.03609    0.06140    0.03138      0.59193      0.08326      0.04034      0.67578      0.08535      
31500   0.72910    0.03608    0.06139    0.03140      0.59188      0.08348      0.04035      0.67571      0.08603      
31600   0.72909    0.03608    0.06139    0.03135      0.59187      0.08395      0.04027      0.67570      0.08640      
31700   0.72908    0.03609    0.06139    0.03146      0.59181      0.08335      0.04039      0.67561      0.08541      
31800   0.72907    0.03609    0.06138    0.03147      0.59180      0.08336      0.04041      0.67556      0.08553      
31900   0.72906    0.03609    0.06139    0.03141      0.59178      0.08394      0.04033      0.67558      0.08627      
32000   0.72905    0.03608    0.06138    0.03136      0.59184      0.08399      0.04033      0.67564      0.08653      
32100   0.72903    0.03607    0.06137    0.03146      0.59177      0.08352      0.04043      0.67556      0.08581      
32200   0.72899    0.03605    0.06137    0.03140      0.59183      0.08340      0.04033      0.67570      0.08561      
32300   0.72898    0.03604    0.06137    0.03142      0.59178      0.08371      0.04037      0.67554      0.08620      
32400   0.72896    0.03603    0.06136    0.03141      0.59184      0.08314      0.04033      0.67566      0.08525      
32500   0.72896    0.03603    0.06136    0.03144      0.59180      0.08327      0.04042      0.67563      0.08531      
32600   0.72893    0.03602    0.06135    0.03138      0.59186      0.08318      0.04035      0.67571      0.08541      
32700   0.72893    0.03602    0.06135    0.03143      0.59178      0.08343      0.04041      0.67561      0.08577      
32800   0.72892    0.03603    0.06135    0.03144      0.59175      0.08343      0.04043      0.67562      0.08564      
32900   0.72891    0.03603    0.06136    0.03138      0.59175      0.08391      0.04035      0.67556      0.08645      
33000   0.72890    0.03603    0.06135    0.03137      0.59182      0.08331      0.04035      0.67562      0.08555      
33100   0.72889    0.03603    0.06135    0.03139      0.59174      0.08376      0.04036      0.67553      0.08628      
33200   0.72887    0.03602    0.06134    0.03138      0.59179      0.08338      0.04032      0.67555      0.08578      
33300   0.72885    0.03601    0.06134    0.03140      0.59173      0.08379      0.04039      0.67548      0.08634      
33400   0.72885    0.03601    0.06133    0.03144      0.59173      0.08341      0.04042      0.67548      0.08556      
33500   0.72883    0.03601    0.06132    0.03143      0.59168      0.08401      0.04042      0.67541      0.08654      
33600   0.72880    0.03600    0.06132    0.03142      0.59167      0.08395      0.04037      0.67538      0.08655      
33700   0.72880    0.03599    0.06131    0.03138      0.59174      0.08379      0.04033      0.67549      0.08602      
33800   0.72878    0.03597    0.06131    0.03136      0.59178      0.08353      0.04031      0.67556      0.08588      
33900   0.72878    0.03598    0.06131    0.03133      0.59177      0.08387      0.04032      0.67554      0.08615      
34000   0.72875    0.03597    0.06131    0.03139      0.59171      0.08382      0.04036      0.67550      0.08611      
34100   0.72874    0.03596    0.06130    0.03143      0.59171      0.08340      0.04039      0.67548      0.08571      
34200   0.72873    0.03595    0.06130    0.03142      0.59172      0.08348      0.04039      0.67549      0.08564      
34300   0.72873    0.03595    0.06129    0.03137      0.59178      0.08331      0.04037      0.67557      0.08564      
34400   0.72872    0.03595    0.06129    0.03139      0.59177      0.08324      0.04037      0.67550      0.08537      
34500   0.72870    0.03594    0.06129    0.03149      0.59160      0.08374      0.04044      0.67535      0.08628      
34600   0.72869    0.03594    0.06129    0.03148      0.59163      0.08354      0.04042      0.67536      0.08586      
34700   0.72869    0.03595    0.06128    0.03146      0.59168      0.08317      0.04041      0.67543      0.08534      
34800   0.72866    0.03593    0.06128    0.03148      0.59166      0.08325      0.04048      0.67546      0.08540      
34900   0.72864    0.03591    0.06127    0.03142      0.59165      0.08386      0.04040      0.67542      0.08636      
35000   0.72865    0.03593    0.06127    0.03140      0.59169      0.08368      0.04039      0.67545      0.08593      
35100   0.72864    0.03592    0.06127    0.03137      0.59168      0.08390      0.04037      0.67544      0.08637      
35200   0.72862    0.03591    0.06127    0.03141      0.59165      0.08385      0.04036      0.67541      0.08644      
35300   0.72860    0.03591    0.06126    0.03143      0.59160      0.08388      0.04045      0.67539      0.08644      
35400   0.72858    0.03590    0.06125    0.03142      0.59166      0.08347      0.04036      0.67541      0.08570      
35500   0.72856    0.03588    0.06125    0.03138      0.59172      0.08332      0.04034      0.67553      0.08541      
35600   0.72856    0.03589    0.06124    0.03138      0.59169      0.08357      0.04037      0.67546      0.08612      
35700   0.72856    0.03589    0.06124    0.03135      0.59172      0.08356      0.04032      0.67550      0.08592      
35800   0.72855    0.03589    0.06123    0.03144      0.59166      0.08332      0.04045      0.67537      0.08572      
35900   0.72855    0.03590    0.06123    0.03143      0.59160      0.08386      0.04042      0.67534      0.08663      
36000   0.72852    0.03589    0.06123    0.03134      0.59170      0.08370      0.04032      0.67551      0.08624      
36100   0.72853    0.03587    0.06122    0.03135      0.59175      0.08340      0.04031      0.67558      0.08566      
36200   0.72850    0.03587    0.06122    0.03143      0.59165      0.08339      0.04041      0.67540      0.08568      
36300   0.72848    0.03586    0.06121    0.03143      0.59165      0.08339      0.04044      0.67541      0.08592      
36400   0.72848    0.03586    0.06121    0.03141      0.59167      0.08331      0.04044      0.67540      0.08567      
36500   0.72847    0.03585    0.06120    0.03140      0.59167      0.08351      0.04039      0.67538      0.08595      
36600   0.72846    0.03585    0.06119    0.03134      0.59172      0.08358      0.04035      0.67548      0.08598      
36700   0.72846    0.03586    0.06119    0.03137      0.59167      0.08365      0.04034      0.67544      0.08605      
36800   0.72844    0.03585    0.06119    0.03146      0.59157      0.08376      0.04048      0.67525      0.08607      
36900   0.72843    0.03586    0.06119    0.03134      0.59170      0.08346      0.04032      0.67548      0.08600      
37000   0.72842    0.03584    0.06118    0.03140      0.59161      0.08385      0.04037      0.67535      0.08629      
37100   0.72840    0.03583    0.06117    0.03143      0.59163      0.08336      0.04041      0.67539      0.08569      
37200   0.72839    0.03584    0.06117    0.03138      0.59168      0.08324      0.04038      0.67540      0.08538      
37300   0.72836    0.03582    0.06116    0.03129      0.59169      0.08399      0.04026      0.67540      0.08650      
37400   0.72835    0.03581    0.06115    0.03141      0.59158      0.08405      0.04038      0.67520      0.08672      
37500   0.72834    0.03581    0.06115    0.03141      0.59164      0.08332      0.04041      0.67532      0.08567      
37600   0.72834    0.03581    0.06116    0.03140      0.59155      0.08416      0.04039      0.67516      0.08692      
37700   0.72832    0.03581    0.06115    0.03142      0.59164      0.08296      0.04036      0.67532      0.08503      
37800   0.72830    0.03579    0.06115    0.03140      0.59163      0.08333      0.04037      0.67526      0.08570      
37900   0.72827    0.03578    0.06114    0.03137      0.59167      0.08310      0.04033      0.67533      0.08555      
38000   0.72827    0.03579    0.06114    0.03140      0.59161      0.08328      0.04035      0.67519      0.08580      
38100   0.72827    0.03579    0.06114    0.03135      0.59170      0.08297      0.04028      0.67538      0.08543      
38200   0.72825    0.03579    0.06113    0.03139      0.59152      0.08415      0.04037      0.67510      0.08683      
38300   0.72823    0.03578    0.06113    0.03141      0.59155      0.08359      0.04041      0.67520      0.08595      
38400   0.72823    0.03578    0.06112    0.03136      0.59161      0.08362      0.04030      0.67533      0.08612      
38500   0.72822    0.03578    0.06112    0.03137      0.59162      0.08332      0.04035      0.67531      0.08567      
38600   0.72821    0.03578    0.06112    0.03141      0.59153      0.08376      0.04035      0.67517      0.08629      
38700   0.72821    0.03578    0.06112    0.03136      0.59161      0.08327      0.04030      0.67536      0.08559      
38800   0.72819    0.03578    0.06111    0.03140      0.59153      0.08372      0.04032      0.67519      0.08633      
38900   0.72818    0.03579    0.06112    0.03137      0.59158      0.08328      0.04031      0.67529      0.08549      
39000   0.72816    0.03578    0.06111    0.03138      0.59155      0.08335      0.04028      0.67523      0.08587      
39100   0.72815    0.03577    0.06111    0.03133      0.59157      0.08371      0.04026      0.67533      0.08639      
39200   0.72815    0.03576    0.06111    0.03137      0.59153      0.08372      0.04030      0.67526      0.08627      
39300   0.72812    0.03576    0.06111    0.03137      0.59151      0.08378      0.04032      0.67529      0.08654      
39400   0.72810    0.03573    0.06110    0.03140      0.59149      0.08379      0.04043      0.67522      0.08646      
39500   0.72809    0.03574    0.06110    0.03135      0.59151      0.08390      0.04033      0.67523      0.08655      
39600   0.72809    0.03574    0.06109    0.03143      0.59144      0.08384      0.04041      0.67519      0.08653      
39700   0.72807    0.03575    0.06109    0.03136      0.59149      0.08383      0.04036      0.67522      0.08654      
39800   0.72807    0.03573    0.06109    0.03137      0.59157      0.08297      0.04034      0.67536      0.08527      
39900   0.72803    0.03573    0.06109    0.03137      0.59150      0.08358      0.04029      0.67524      0.08612      
40000   0.72803    0.03573    0.06108    0.03136      0.59152      0.08335      0.04035      0.67520      0.08563      
40100   0.72802    0.03573    0.06108    0.03150      0.59133      0.08377      0.04048      0.67494      0.08636      
40200   0.72801    0.03573    0.06107    0.03144      0.59141      0.08357      0.04042      0.67505      0.08580      
40300   0.72798    0.03572    0.06107    0.03138      0.59147      0.08332      0.04037      0.67516      0.08577      
40400   0.72800    0.03572    0.06107    0.03137      0.59148      0.08369      0.04037      0.67520      0.08615      
40500   0.72797    0.03571    0.06106    0.03136      0.59152      0.08321      0.04033      0.67521      0.08578      
40600   0.72797    0.03570    0.06105    0.03132      0.59153      0.08365      0.04028      0.67525      0.08625      
40700   0.72796    0.03569    0.06105    0.03138      0.59150      0.08345      0.04033      0.67524      0.08596      
40800   0.72795    0.03567    0.06103    0.03130      0.59161      0.08335      0.04024      0.67531      0.08573      
40900   0.72792    0.03566    0.06102    0.03134      0.59156      0.08335      0.04031      0.67526      0.08599      
41000   0.72790    0.03565    0.06102    0.03135      0.59152      0.08352      0.04029      0.67527      0.08619      
41100   0.72789    0.03566    0.06102    0.03137      0.59154      0.08308      0.04035      0.67522      0.08560      
41200   0.72789    0.03564    0.06102    0.03138      0.59148      0.08369      0.04033      0.67515      0.08657      
41300   0.72788    0.03565    0.06101    0.03137      0.59151      0.08339      0.04033      0.67517      0.08606      
41400   0.72787    0.03565    0.06101    0.03135      0.59149      0.08368      0.04030      0.67514      0.08653      
41500   0.72786    0.03565    0.06101    0.03140      0.59144      0.08358      0.04039      0.67508      0.08628      
41600   0.72785    0.03563    0.06100    0.03137      0.59147      0.08370      0.04032      0.67513      0.08629      
41700   0.72784    0.03564    0.06100    0.03144      0.59140      0.08357      0.04045      0.67508      0.08610      
41800   0.72783    0.03564    0.06100    0.03138      0.59149      0.08319      0.04041      0.67518      0.08551      
41900   0.72782    0.03563    0.06100    0.03133      0.59152      0.08346      0.04033      0.67523      0.08586      
42000   0.72782    0.03564    0.06100    0.03132      0.59156      0.08306      0.04030      0.67531      0.08526      
42100   0.72780    0.03563    0.06099    0.03136      0.59152      0.08302      0.04037      0.67531      0.08478      
42200   0.72778    0.03561    0.06098    0.03134      0.59149      0.08353      0.04029      0.67523      0.08591      
42300   0.72776    0.03561    0.06098    0.03137      0.59148      0.08324      0.04037      0.67522      0.08516      
42400   0.72776    0.03561    0.06098    0.03134      0.59146      0.08371      0.04028      0.67512      0.08598      
42500   0.72773    0.03558    0.06097    0.03137      0.59146      0.08341      0.04031      0.67516      0.08564      
42600   0.72773    0.03558    0.06097    0.03131      0.59152      0.08337      0.04027      0.67523      0.08534      
42700   0.72771    0.03558    0.06097    0.03132      0.59153      0.08307      0.04022      0.67527      0.08515      
42800   0.72769    0.03558    0.06096    0.03141      0.59142      0.08328      0.04040      0.67507      0.08565      
42900   0.72770    0.03557    0.06096    0.03128      0.59150      0.08384      0.04022      0.67525      0.08637      
43000   0.72767    0.03556    0.06096    0.03137      0.59141      0.08364      0.04033      0.67512      0.08622      
43100   0.72767    0.03557    0.06096    0.03129      0.59148      0.08369      0.04021      0.67523      0.08614      
43200   0.72767    0.03557    0.06096    0.03131      0.59146      0.08369      0.04027      0.67522      0.08608      
43300   0.72765    0.03557    0.06096    0.03141      0.59141      0.08308      0.04035      0.67517      0.08516      
43400   0.72765    0.03557    0.06096    0.03138      0.59143      0.08312      0.04031      0.67521      0.08525      
43500   0.72763    0.03556    0.06095    0.03137      0.59139      0.08359      0.04031      0.67517      0.08610      
43600   0.72761    0.03556    0.06095    0.03134      0.59144      0.08320      0.04033      0.67522      0.08554      
43700   0.72761    0.03557    0.06095    0.03133      0.59147      0.08293      0.04030      0.67529      0.08515      
43800   0.72760    0.03557    0.06095    0.03137      0.59135      0.08352      0.04034      0.67516      0.08587      
43900   0.72758    0.03558    0.06095    0.03128      0.59143      0.08339      0.04023      0.67524      0.08583      
44000   0.72759    0.03557    0.06094    0.03134      0.59139      0.08347      0.04029      0.67513      0.08608      
44100   0.72757    0.03556    0.06093    0.03129      0.59147      0.08321      0.04026      0.67523      0.08572      
44200   0.72756    0.03556    0.06093    0.03134      0.59140      0.08336      0.04030      0.67516      0.08591      
44300   0.72753    0.03554    0.06092    0.03132      0.59138      0.08374      0.04029      0.67519      0.08635      
44400   0.72752    0.03554    0.06092    0.03133      0.59139      0.08347      0.04031      0.67523      0.08590      
44500   0.72752    0.03554    0.06092    0.03136      0.59134      0.08349      0.04031      0.67510      0.08616      
44600   0.72751    0.03554    0.06092    0.03134      0.59135      0.08353      0.04033      0.67510      0.08587      
44700   0.72751    0.03554    0.06092    0.03135      0.59139      0.08305      0.04034      0.67517      0.08527      
44800   0.72748    0.03553    0.06091    0.03131      0.59142      0.08309      0.04024      0.67523      0.08547      
44900   0.72747    0.03552    0.06091    0.03132      0.59137      0.08347      0.04024      0.67521      0.08599      
45000   0.72745    0.03551    0.06090    0.03130      0.59141      0.08323      0.04024      0.67527      0.08574      
45100   0.72745    0.03552    0.06090    0.03133      0.59137      0.08323      0.04031      0.67522      0.08578      
45200   0.72743    0.03551    0.06090    0.03133      0.59131      0.08378      0.04032      0.67515      0.08659      
45300   0.72742    0.03551    0.06090    0.03135      0.59133      0.08336      0.04029      0.67514      0.08619      
45400   0.72740    0.03551    0.06089    0.03131      0.59139      0.08305      0.04027      0.67521      0.08557      
45500   0.72740    0.03550    0.06089    0.03133      0.59129      0.08386      0.04033      0.67511      0.08668      
45600   0.72738    0.03549    0.06088    0.03130      0.59132      0.08380      0.04031      0.67517      0.08640      
45700   0.72737    0.03548    0.06088    0.03132      0.59136      0.08327      0.04028      0.67521      0.08583      
45800   0.72737    0.03548    0.06088    0.03124      0.59142      0.08348      0.04022      0.67532      0.08617      
45900   0.72736    0.03548    0.06087    0.03136      0.59126      0.08392      0.04035      0.67506      0.08666      
46000   0.72735    0.03547    0.06086    0.03142      0.59124      0.08361      0.04040      0.67501      0.08633      
46100   0.72735    0.03548    0.06086    0.03140      0.59129      0.08324      0.04034      0.67510      0.08568      
46200   0.72731    0.03546    0.06085    0.03137      0.59125      0.08370      0.04032      0.67505      0.08644      
46300   0.72730    0.03546    0.06085    0.03131      0.59137      0.08318      0.04026      0.67520      0.08578      
46400   0.72731    0.03546    0.06084    0.03138      0.59129      0.08332      0.04033      0.67511      0.08573      
46500   0.72729    0.03546    0.06084    0.03134      0.59130      0.08359      0.04026      0.67513      0.08629      
46600   0.72727    0.03546    0.06083    0.03135      0.59130      0.08333      0.04028      0.67512      0.08608      
46700   0.72727    0.03545    0.06083    0.03135      0.59132      0.08317      0.04027      0.67517      0.08565      
46800   0.72725    0.03545    0.06083    0.03131      0.59135      0.08314      0.04028      0.67524      0.08593      
46900   0.72724    0.03543    0.06082    0.03135      0.59133      0.08307      0.04024      0.67520      0.08549      
47000   0.72723    0.03544    0.06082    0.03134      0.59128      0.08349      0.04026      0.67514      0.08621      
47100   0.72723    0.03544    0.06082    0.03137      0.59126      0.08334      0.04033      0.67511      0.08607      
47200   0.72720    0.03543    0.06082    0.03132      0.59126      0.08369      0.04024      0.67514      0.08671      
47300   0.72720    0.03543    0.06081    0.03142      0.59121      0.08330      0.04036      0.67503      0.08601      
47400   0.72717    0.03543    0.06081    0.03137      0.59125      0.08313      0.04032      0.67500      0.08587      
47500   0.72716    0.03541    0.06081    0.03140      0.59121      0.08333      0.04035      0.67498      0.08613      
47600   0.72715    0.03541    0.06081    0.03135      0.59122      0.08359      0.04034      0.67497      0.08645      
47700   0.72716    0.03542    0.06081    0.03136      0.59124      0.08332      0.04030      0.67506      0.08596      
47800   0.72715    0.03541    0.06081    0.03139      0.59122      0.08321      0.04038      0.67502      0.08563      
47900   0.72713    0.03540    0.06080    0.03134      0.59130      0.08288      0.04027      0.67513      0.08549      
48000   0.72711    0.03539    0.06080    0.03134      0.59125      0.08333      0.04027      0.67502      0.08597      
48100   0.72710    0.03539    0.06080    0.03140      0.59119      0.08333      0.04035      0.67498      0.08588      
48200   0.72711    0.03540    0.06080    0.03140      0.59116      0.08351      0.04036      0.67488      0.08596      
48300   0.72710    0.03539    0.06079    0.03145      0.59114      0.08334      0.04041      0.67488      0.08595      
48400   0.72709    0.03538    0.06078    0.03135      0.59123      0.08348      0.04032      0.67500      0.08613      
48500   0.72706    0.03537    0.06078    0.03138      0.59117      0.08351      0.04033      0.67488      0.08604      
48600   0.72706    0.03537    0.06079    0.03135      0.59116      0.08392      0.04027      0.67489      0.08701      
48700   0.72705    0.03537    0.06078    0.03133      0.59123      0.08348      0.04029      0.67497      0.08614      
48800   0.72702    0.03535    0.06078    0.03145      0.59112      0.08336      0.04039      0.67479      0.08612      
48900   0.72702    0.03535    0.06077    0.03135      0.59122      0.08328      0.04028      0.67499      0.08598      
49000   0.72700    0.03533    0.06077    0.03134      0.59118      0.08377      0.04024      0.67491      0.08668      
49100   0.72699    0.03533    0.06076    0.03137      0.59117      0.08356      0.04029      0.67491      0.08613      
49200   0.72698    0.03533    0.06076    0.03135      0.59116      0.08381      0.04029      0.67489      0.08652      
49300   0.72698    0.03534    0.06077    0.03138      0.59120      0.08303      0.04030      0.67499      0.08544      
49400   0.72695    0.03532    0.06076    0.03132      0.59121      0.08349      0.04027      0.67500      0.08618      
49500   0.72695    0.03531    0.06075    0.03137      0.59119      0.08325      0.04027      0.67499      0.08569      
49600   0.72694    0.03531    0.06075    0.03140      0.59118      0.08298      0.04037      0.67501      0.08537      
49700   0.72693    0.03531    0.06074    0.03134      0.59117      0.08371      0.04031      0.67494      0.08633      
49800   0.72691    0.03531    0.06074    0.03141      0.59114      0.08320      0.04037      0.67492      0.08541      
49900   0.72691    0.03530    0.06074    0.03137      0.59114      0.08356      0.04035      0.67492      0.08600      
50000   0.72689    0.03530    0.06073    0.03135      0.59119      0.08325      0.04027      0.67503      0.08563      
50100   0.72688    0.03529    0.06073    0.03135      0.59115      0.08364      0.04029      0.67494      0.08615      
50200   0.72687    0.03528    0.06072    0.03127      0.59125      0.08342      0.04020      0.67508      0.08589      
50300   0.72685    0.03527    0.06071    0.03137      0.59113      0.08371      0.04029      0.67490      0.08614      
50400   0.72683    0.03527    0.06070    0.03137      0.59119      0.08295      0.04034      0.67499      0.08512      
50500   0.72682    0.03527    0.06071    0.03140      0.59110      0.08349      0.04034      0.67492      0.08604      
50600   0.72682    0.03528    0.06071    0.03134      0.59114      0.08353      0.04026      0.67493      0.08601      
50700   0.72680    0.03527    0.06071    0.03135      0.59120      0.08281      0.04029      0.67501      0.08481      
50800   0.72679    0.03526    0.06070    0.03133      0.59117      0.08332      0.04023      0.67494      0.08580      
50900   0.72678    0.03526    0.06070    0.03127      0.59121      0.08339      0.04019      0.67500      0.08587      
51000   0.72677    0.03526    0.06069    0.03134      0.59113      0.08357      0.04031      0.67486      0.08585      
51100   0.72677    0.03526    0.06069    0.03134      0.59111      0.08353      0.04028      0.67490      0.08597      
51200   0.72676    0.03526    0.06069    0.03137      0.59109      0.08361      0.04033      0.67481      0.08606      
51300   0.72675    0.03526    0.06069    0.03137      0.59112      0.08313      0.04035      0.67484      0.08526      
51400   0.72673    0.03525    0.06069    0.03133      0.59112      0.08337      0.04026      0.67486      0.08569      
51500   0.72674    0.03526    0.06069    0.03130      0.59113      0.08357      0.04024      0.67481      0.08593      
51600   0.72672    0.03526    0.06069    0.03132      0.59111      0.08338      0.04026      0.67482      0.08570      
51700   0.72672    0.03526    0.06069    0.03134      0.59110      0.08332      0.04030      0.67480      0.08560      
51800   0.72671    0.03526    0.06068    0.03134      0.59106      0.08362      0.04032      0.67480      0.08612      
51900   0.72670    0.03525    0.06068    0.03137      0.59102      0.08391      0.04032      0.67472      0.08673      
52000   0.72669    0.03524    0.06068    0.03130      0.59113      0.08342      0.04022      0.67489      0.08609      
52100   0.72668    0.03524    0.06067    0.03131      0.59110      0.08358      0.04024      0.67488      0.08643      
52200   0.72668    0.03523    0.06067    0.03130      0.59114      0.08342      0.04024      0.67491      0.08600      
52300   0.72667    0.03522    0.06066    0.03130      0.59110      0.08379      0.04021      0.67484      0.08660      
52400   0.72665    0.03524    0.06066    0.03128      0.59112      0.08346      0.04019      0.67485      0.08602      
52500   0.72664    0.03522    0.06066    0.03126      0.59114      0.08359      0.04017      0.67488      0.08625      
52600   0.72664    0.03522    0.06065    0.03134      0.59108      0.08338      0.04029      0.67481      0.08591      
52700   0.72661    0.03522    0.06065    0.03131      0.59110      0.08329      0.04022      0.67477      0.08593      
52800   0.72660    0.03521    0.06065    0.03131      0.59110      0.08331      0.04026      0.67482      0.08586      
52900   0.72660    0.03521    0.06065    0.03141      0.59103      0.08287      0.04037      0.67477      0.08548      
53000   0.72659    0.03521    0.06065    0.03140      0.59098      0.08349      0.04034      0.67469      0.08642      
53100   0.72657    0.03521    0.06065    0.03134      0.59105      0.08330      0.04030      0.67480      0.08583      
53200   0.72655    0.03520    0.06064    0.03130      0.59108      0.08335      0.04024      0.67484      0.08614      
53300   0.72655    0.03520    0.06064    0.03135      0.59100      0.08352      0.04031      0.67479      0.08614      
53400   0.72655    0.03521    0.06064    0.03135      0.59105      0.08302      0.04032      0.67480      0.08567      
53500   0.72653    0.03520    0.06064    0.03134      0.59104      0.08315      0.04027      0.67483      0.08567      
53600   0.72653    0.03519    0.06063    0.03125      0.59109      0.08359      0.04019      0.67484      0.08623      
53700   0.72651    0.03518    0.06063    0.03132      0.59109      0.08289      0.04026      0.67481      0.08529      
53800   0.72651    0.03518    0.06063    0.03130      0.59108      0.08316      0.04026      0.67479      0.08581      
53900   0.72650    0.03518    0.06063    0.03136      0.59102      0.08319      0.04026      0.67472      0.08600      
54000   0.72647    0.03517    0.06062    0.03134      0.59099      0.08360      0.04031      0.67461      0.08643      
54100   0.72646    0.03515    0.06061    0.03130      0.59109      0.08305      0.04025      0.67483      0.08560      
54200   0.72644    0.03515    0.06061    0.03134      0.59099      0.08347      0.04027      0.67463      0.08623      
54300   0.72643    0.03514    0.06061    0.03136      0.59102      0.08304      0.04030      0.67472      0.08564      
54400   0.72642    0.03515    0.06060    0.03136      0.59096      0.08349      0.04029      0.67465      0.08626      
54500   0.72641    0.03514    0.06060    0.03134      0.59104      0.08286      0.04029      0.67474      0.08528      
54600   0.72640    0.03514    0.06060    0.03132      0.59103      0.08312      0.04025      0.67476      0.08573      
54700   0.72640    0.03513    0.06059    0.03130      0.59100      0.08379      0.04023      0.67474      0.08652      
54800   0.72639    0.03513    0.06059    0.03133      0.59102      0.08325      0.04030      0.67471      0.08588      
54900   0.72638    0.03513    0.06059    0.03134      0.59098      0.08347      0.04028      0.67469      0.08612      
55000   0.72636    0.03513    0.06059    0.03134      0.59095      0.08359      0.04031      0.67464      0.08635      
55100   0.72636    0.03512    0.06058    0.03131      0.59097      0.08370      0.04022      0.67470      0.08660      
55200   0.72634    0.03512    0.06058    0.03128      0.59099      0.08377      0.04022      0.67470      0.08655      
55300   0.72631    0.03512    0.06057    0.03138      0.59093      0.08308      0.04034      0.67460      0.08564      
55400   0.72631    0.03512    0.06057    0.03132      0.59098      0.08309      0.04029      0.67475      0.08555      
55500   0.72630    0.03512    0.06057    0.03130      0.59101      0.08297      0.04029      0.67473      0.08518      
55600   0.72628    0.03512    0.06057    0.03130      0.59097      0.08331      0.04025      0.67476      0.08584      
55700   0.72628    0.03512    0.06057    0.03133      0.59094      0.08318      0.04029      0.67468      0.08569      
55800   0.72627    0.03511    0.06056    0.03134      0.59091      0.08355      0.04030      0.67462      0.08626      
55900   0.72625    0.03510    0.06055    0.03130      0.59100      0.08295      0.04023      0.67470      0.08519      
56000   0.72624    0.03509    0.06055    0.03127      0.59101      0.08312      0.04024      0.67475      0.08548      
56100   0.72623    0.03508    0.06054    0.03131      0.59096      0.08330      0.04027      0.67467      0.08581      
56200   0.72622    0.03508    0.06054    0.03131      0.59091      0.08377      0.04025      0.67463      0.08660      
56300   0.72622    0.03508    0.06054    0.03127      0.59096      0.08370      0.04021      0.67469      0.08660      
56400   0.72621    0.03507    0.06054    0.03134      0.59091      0.08348      0.04033      0.67469      0.08591      
56500   0.72620    0.03507    0.06054    0.03136      0.59092      0.08307      0.04034      0.67468      0.08550      
56600   0.72618    0.03507    0.06053    0.03134      0.59091      0.08326      0.04029      0.67467      0.08576      
56700   0.72616    0.03506    0.06053    0.03130      0.59093      0.08341      0.04027      0.67471      0.08607      
56800   0.72615    0.03506    0.06053    0.03132      0.59092      0.08327      0.04026      0.67471      0.08592      
56900   0.72615    0.03506    0.06053    0.03129      0.59097      0.08307      0.04018      0.67480      0.08540      
57000   0.72613    0.03504    0.06052    0.03131      0.59094      0.08313      0.04027      0.67476      0.08554      
57100   0.72613    0.03505    0.06052    0.03134      0.59091      0.08314      0.04028      0.67472      0.08566      
57200   0.72613    0.03506    0.06052    0.03132      0.59091      0.08318      0.04028      0.67477      0.08587      
57300   0.72612    0.03505    0.06051    0.03128      0.59097      0.08312      0.04026      0.67479      0.08560      
57400   0.72610    0.03505    0.06052    0.03135      0.59089      0.08301      0.04035      0.67471      0.08572      
57500   0.72609    0.03504    0.06051    0.03128      0.59092      0.08332      0.04024      0.67469      0.08604      
57600   0.72608    0.03505    0.06051    0.03131      0.59088      0.08335      0.04028      0.67466      0.08610      
57700   0.72608    0.03504    0.06050    0.03135      0.59090      0.08293      0.04030      0.67465      0.08550      
57800   0.72607    0.03503    0.06050    0.03132      0.59090      0.08323      0.04027      0.67469      0.08583      
57900   0.72606    0.03504    0.06050    0.03129      0.59090      0.08334      0.04022      0.67474      0.08603      
58000   0.72605    0.03504    0.06050    0.03133      0.59092      0.08268      0.04031      0.67473      0.08507      
58100   0.72604    0.03504    0.06050    0.03133      0.59084      0.08330      0.04031      0.67460      0.08582      
58200   0.72603    0.03503    0.06050    0.03130      0.59085      0.08349      0.04026      0.67462      0.08609      
58300   0.72602    0.03502    0.06049    0.03135      0.59080      0.08353      0.04034      0.67456      0.08626      
58400   0.72600    0.03501    0.06049    0.03129      0.59085      0.08358      0.04024      0.67465      0.08625      
58500   0.72598    0.03500    0.06048    0.03127      0.59090      0.08333      0.04021      0.67469      0.08595      
58600   0.72598    0.03500    0.06048    0.03129      0.59094      0.08276      0.04028      0.67469      0.08515      
58700   0.72596    0.03500    0.06047    0.03133      0.59085      0.08309      0.04033      0.67459      0.08558      
58800   0.72595    0.03499    0.06047    0.03135      0.59083      0.08307      0.04032      0.67458      0.08543      
58900   0.72596    0.03499    0.06047    0.03125      0.59094      0.08312      0.04024      0.67477      0.08557      
59000   0.72593    0.03499    0.06046    0.03128      0.59087      0.08331      0.04027      0.67469      0.08570      
59100   0.72593    0.03497    0.06046    0.03129      0.59091      0.08300      0.04022      0.67471      0.08540      
59200   0.72592    0.03498    0.06045    0.03127      0.59088      0.08347      0.04026      0.67465      0.08622      
59300   0.72592    0.03498    0.06045    0.03124      0.59091      0.08342      0.04021      0.67474      0.08604      
59400   0.72591    0.03498    0.06045    0.03129      0.59081      0.08377      0.04026      0.67453      0.08665      
59500   0.72589    0.03497    0.06045    0.03132      0.59082      0.08334      0.04025      0.67452      0.08617      
59600   0.72589    0.03498    0.06045    0.03124      0.59093      0.08297      0.04018      0.67470      0.08557      
59700   0.72588    0.03497    0.06045    0.03132      0.59079      0.08356      0.04026      0.67451      0.08619      
59800   0.72586    0.03498    0.06045    0.03126      0.59087      0.08306      0.04023      0.67458      0.08561      
59900   0.72586    0.03497    0.06044    0.03125      0.59089      0.08309      0.04020      0.67462      0.08565      
60000   0.72584    0.03496    0.06044    0.03135      0.59074      0.08357      0.04029      0.67448      0.08651      
60100   0.72583    0.03496    0.06044    0.03132      0.59078      0.08336      0.04030      0.67457      0.08610      
60200   0.72582    0.03497    0.06043    0.03132      0.59081      0.08287      0.04027      0.67455      0.08538      
60300   0.72581    0.03496    0.06043    0.03128      0.59082      0.08307      0.04023      0.67456      0.08556      
60400   0.72580    0.03496    0.06043    0.03135      0.59076      0.08298      0.04034      0.67446      0.08567      
60500   0.72579    0.03496    0.06043    0.03128      0.59080      0.08312      0.04026      0.67450      0.08569      
60600   0.72579    0.03496    0.06043    0.03129      0.59081      0.08303      0.04028      0.67451      0.08547      
60700   0.72576    0.03494    0.06043    0.03128      0.59078      0.08328      0.04030      0.67449      0.08600      
60800   0.72576    0.03495    0.06042    0.03131      0.59075      0.08333      0.04029      0.67441      0.08596      
60900   0.72574    0.03494    0.06042    0.03130      0.59079      0.08296      0.04027      0.67441      0.08545      
61000   0.72574    0.03494    0.06042    0.03127      0.59077      0.08337      0.04025      0.67442      0.08606      
61100   0.72574    0.03495    0.06042    0.03128      0.59077      0.08326      0.04028      0.67441      0.08582      
61200   0.72573    0.03493    0.06041    0.03129      0.59079      0.08300      0.04028      0.67444      0.08545      
61300   0.72572    0.03493    0.06041    0.03132      0.59077      0.08290      0.04028      0.67445      0.08551      
61400   0.72570    0.03493    0.06041    0.03128      0.59073      0.08352      0.04025      0.67438      0.08624      
61500   0.72570    0.03492    0.06041    0.03128      0.59078      0.08312      0.04022      0.67437      0.08563      
61600   0.72569    0.03492    0.06041    0.03127      0.59074      0.08353      0.04024      0.67435      0.08640      
61700   0.72568    0.03491    0.06040    0.03130      0.59072      0.08338      0.04030      0.67433      0.08624      
61800   0.72567    0.03491    0.06040    0.03128      0.59077      0.08306      0.04026      0.67442      0.08555      
61900   0.72565    0.03491    0.06040    0.03125      0.59078      0.08317      0.04022      0.67440      0.08593      
62000   0.72565    0.03490    0.06039    0.03133      0.59072      0.08312      0.04033      0.67436      0.08573      
62100   0.72564    0.03490    0.06039    0.03135      0.59067      0.08323      0.04029      0.67427      0.08578      
62200   0.72564    0.03490    0.06039    0.03132      0.59072      0.08318      0.04030      0.67437      0.08569      
62300   0.72562    0.03489    0.06038    0.03129      0.59074      0.08318      0.04022      0.67441      0.08576      
62400   0.72561    0.03489    0.06038    0.03125      0.59076      0.08330      0.04020      0.67444      0.08607      
62500   0.72560    0.03489    0.06038    0.03133      0.59071      0.08299      0.04029      0.67435      0.08547      
62600   0.72560    0.03489    0.06038    0.03128      0.59074      0.08322      0.04021      0.67432      0.08575      
62700   0.72558    0.03488    0.06038    0.03134      0.59068      0.08300      0.04029      0.67429      0.08553      
[...]
89300   0.72301    0.03401    0.05959    0.03119      0.58992      0.08299      0.04011      0.67362      0.08572      
89400   0.72300    0.03401    0.05959    0.03118      0.58993      0.08290      0.04008      0.67365      0.08548      
89500   0.72298    0.03400    0.05959    0.03121      0.58991      0.08278      0.04012      0.67360      0.08525      
89600   0.72297    0.03399    0.05958    0.03114      0.58999      0.08263      0.04005      0.67373      0.08493      
89700   0.72296    0.03399    0.05958    0.03116      0.58992      0.08312      0.04006      0.67363      0.08575      
89800   0.72296    0.03398    0.05957    0.03121      0.58991      0.08286      0.04010      0.67356      0.08528      
89900   0.72294    0.03397    0.05957    0.03122      0.58990      0.08281      0.04014      0.67358      0.08537      
90000   0.72293    0.03397    0.05957    0.03121      0.58988      0.08302      0.04011      0.67356      0.08553      
90100   0.72292    0.03396    0.05957    0.03121      0.58991      0.08269      0.04012      0.67362      0.08512      
90200   0.72292    0.03397    0.05956    0.03119      0.58990      0.08295      0.04010      0.67362      0.08540      
90300   0.72292    0.03397    0.05956    0.03122      0.58990      0.08274      0.04012      0.67359      0.08515      
90400   0.72291    0.03396    0.05956    0.03121      0.58991      0.08270      0.04013      0.67364      0.08499      
90500   0.72290    0.03396    0.05956    0.03123      0.58989      0.08267      0.04011      0.67359      0.08511      
90600   0.72289    0.03396    0.05955    0.03117      0.58992      0.08292      0.04006      0.67365      0.08548      
90700   0.72288    0.03395    0.05955    0.03121      0.58991      0.08266      0.04015      0.67359      0.08499      
90800   0.72286    0.03395    0.05955    0.03121      0.58988      0.08278      0.04014      0.67356      0.08519      
90900   0.72285    0.03394    0.05954    0.03119      0.58991      0.08269      0.04013      0.67362      0.08509      
91000   0.72284    0.03394    0.05954    0.03118      0.58993      0.08257      0.04010      0.67362      0.08494      
91100   0.72283    0.03393    0.05953    0.03119      0.58988      0.08299      0.04011      0.67354      0.08563      
91200   0.72283    0.03393    0.05953    0.03114      0.58995      0.08261      0.04003      0.67365      0.08494      
91300   0.72282    0.03393    0.05953    0.03120      0.58990      0.08257      0.04012      0.67359      0.08491      
91400   0.72280    0.03393    0.05952    0.03115      0.58993      0.08267      0.04007      0.67362      0.08506      
91500   0.72280    0.03393    0.05952    0.03117      0.58989      0.08280      0.04009      0.67355      0.08536      
91600   0.72279    0.03392    0.05952    0.03119      0.58988      0.08281      0.04009      0.67356      0.08542      
91700   0.72278    0.03392    0.05952    0.03117      0.58987      0.08305      0.04006      0.67351      0.08583      
91800   0.72277    0.03392    0.05952    0.03121      0.58984      0.08291      0.04012      0.67349      0.08554      
91900   0.72277    0.03392    0.05951    0.03112      0.58990      0.08311      0.04003      0.67357      0.08580      
92000   0.72276    0.03391    0.05951    0.03119      0.58986      0.08282      0.04008      0.67348      0.08533      
92100   0.72275    0.03392    0.05950    0.03118      0.58987      0.08285      0.04008      0.67351      0.08532      
92200   0.72273    0.03391    0.05950    0.03120      0.58984      0.08290      0.04009      0.67350      0.08543      
92300   0.72272    0.03390    0.05950    0.03112      0.58991      0.08288      0.04001      0.67357      0.08556      
92400   0.72271    0.03390    0.05950    0.03119      0.58987      0.08250      0.04011      0.67355      0.08489      
92500   0.72269    0.03390    0.05950    0.03117      0.58986      0.08273      0.04009      0.67354      0.08530      
92600   0.72268    0.03389    0.05949    0.03120      0.58980      0.08306      0.04011      0.67342      0.08575      
92700   0.72267    0.03389    0.05949    0.03113      0.58991      0.08253      0.04001      0.67361      0.08505      
92800   0.72267    0.03389    0.05949    0.03120      0.58984      0.08257      0.04010      0.67346      0.08512      
92900   0.72266    0.03388    0.05948    0.03120      0.58985      0.08247      0.04009      0.67350      0.08494      
93000   0.72265    0.03388    0.05948    0.03117      0.58988      0.08244      0.04008      0.67352      0.08479      
93100   0.72264    0.03387    0.05948    0.03119      0.58984      0.08268      0.04010      0.67345      0.08522      
93200   0.72263    0.03387    0.05948    0.03116      0.58987      0.08258      0.04007      0.67348      0.08502      
93300   0.72262    0.03387    0.05947    0.03119      0.58980      0.08288      0.04010      0.67341      0.08550      
93400   0.72261    0.03386    0.05947    0.03118      0.58984      0.08262      0.04007      0.67347      0.08520      
93500   0.72260    0.03386    0.05947    0.03118      0.58983      0.08260      0.04010      0.67347      0.08515      
93600   0.72259    0.03386    0.05946    0.03112      0.58988      0.08264      0.04003      0.67352      0.08517      
93700   0.72258    0.03386    0.05946    0.03117      0.58982      0.08268      0.04006      0.67343      0.08525      
93800   0.72257    0.03385    0.05945    0.03118      0.58981      0.08278      0.04008      0.67340      0.08545      
93900   0.72256    0.03385    0.05945    0.03117      0.58980      0.08288      0.04007      0.67341      0.08570      
94000   0.72255    0.03385    0.05945    0.03117      0.58983      0.08254      0.04008      0.67346      0.08514      
94100   0.72254    0.03384    0.05944    0.03116      0.58983      0.08263      0.04007      0.67345      0.08535      
94200   0.72253    0.03384    0.05944    0.03116      0.58981      0.08274      0.04004      0.67345      0.08549      
94300   0.72252    0.03384    0.05944    0.03115      0.58981      0.08277      0.04007      0.67347      0.08544      
94400   0.72251    0.03383    0.05944    0.03123      0.58977      0.08232      0.04013      0.67338      0.08490      
94500   0.72250    0.03383    0.05943    0.03124      0.58973      0.08266      0.04016      0.67334      0.08548      
94600   0.72249    0.03383    0.05943    0.03116      0.58980      0.08264      0.04009      0.67347      0.08535      
94700   0.72248    0.03383    0.05943    0.03115      0.58982      0.08255      0.04005      0.67348      0.08533      
94800   0.72247    0.03382    0.05942    0.03121      0.58973      0.08283      0.04011      0.67338      0.08560      
94900   0.72246    0.03382    0.05942    0.03119      0.58978      0.08254      0.04008      0.67345      0.08521      
95000   0.72245    0.03381    0.05941    0.03117      0.58979      0.08264      0.04006      0.67341      0.08541      
95100   0.72244    0.03381    0.05941    0.03117      0.58980      0.08253      0.04008      0.67344      0.08494      
95200   0.72243    0.03382    0.05941    0.03113      0.58981      0.08262      0.04004      0.67342      0.08515      
95300   0.72242    0.03382    0.05941    0.03115      0.58979      0.08261      0.04004      0.67342      0.08517      
95400   0.72241    0.03381    0.05940    0.03117      0.58979      0.08243      0.04008      0.67342      0.08498      
95500   0.72240    0.03381    0.05940    0.03113      0.58978      0.08271      0.04003      0.67341      0.08530      
95600   0.72239    0.03380    0.05940    0.03120      0.58974      0.08260      0.04011      0.67335      0.08530      
95700   0.72239    0.03380    0.05939    0.03120      0.58977      0.08231      0.04009      0.67342      0.08483      
95800   0.72237    0.03379    0.05939    0.03117      0.58978      0.08251      0.04007      0.67341      0.08516      
95900   0.72236    0.03378    0.05938    0.03119      0.58975      0.08252      0.04009      0.67341      0.08524      
96000   0.72235    0.03377    0.05938    0.03118      0.58976      0.08257      0.04009      0.67341      0.08514      
96100   0.72234    0.03377    0.05938    0.03123      0.58971      0.08247      0.04013      0.67337      0.08497      
96200   0.72234    0.03377    0.05937    0.03116      0.58977      0.08265      0.04004      0.67339      0.08527      
96300   0.72233    0.03377    0.05937    0.03116      0.58979      0.08239      0.04007      0.67345      0.08489      
96400   0.72231    0.03376    0.05937    0.03117      0.58975      0.08271      0.04006      0.67341      0.08532      
96500   0.72230    0.03375    0.05937    0.03119      0.58973      0.08255      0.04009      0.67338      0.08509      
96600   0.72229    0.03375    0.05937    0.03119      0.58973      0.08255      0.04010      0.67337      0.08510      
96700   0.72228    0.03375    0.05936    0.03122      0.58969      0.08257      0.04011      0.67332      0.08521      
96800   0.72227    0.03375    0.05936    0.03120      0.58972      0.08236      0.04012      0.67344      0.08485      
96900   0.72226    0.03374    0.05936    0.03116      0.58975      0.08251      0.04009      0.67346      0.08522      
97000   0.72225    0.03374    0.05935    0.03118      0.58973      0.08247      0.04008      0.67338      0.08501      
97100   0.72224    0.03373    0.05935    0.03116      0.58975      0.08254      0.04006      0.67341      0.08505      
97200   0.72223    0.03373    0.05934    0.03120      0.58969      0.08279      0.04010      0.67337      0.08539      
97300   0.72222    0.03373    0.05934    0.03120      0.58968      0.08275      0.04011      0.67338      0.08544      
97400   0.72221    0.03372    0.05934    0.03116      0.58974      0.08253      0.04008      0.67345      0.08516      
97500   0.72221    0.03372    0.05933    0.03116      0.58973      0.08261      0.04007      0.67344      0.08524      
97600   0.72220    0.03373    0.05933    0.03121      0.58970      0.08241      0.04011      0.67336      0.08504      
97700   0.72219    0.03371    0.05933    0.03117      0.58971      0.08262      0.04008      0.67340      0.08517      
97800   0.72218    0.03372    0.05932    0.03119      0.58969      0.08262      0.04013      0.67338      0.08525      
97900   0.72218    0.03372    0.05932    0.03117      0.58973      0.08236      0.04008      0.67346      0.08486      
98000   0.72216    0.03371    0.05932    0.03116      0.58972      0.08254      0.04009      0.67342      0.08518      
98100   0.72215    0.03371    0.05932    0.03115      0.58970      0.08275      0.04007      0.67337      0.08551      
98200   0.72214    0.03371    0.05932    0.03118      0.58968      0.08249      0.04010      0.67334      0.08511      
98300   0.72213    0.03370    0.05931    0.03111      0.58975      0.08261      0.04001      0.67343      0.08526      
98400   0.72213    0.03370    0.05931    0.03113      0.58972      0.08266      0.04004      0.67338      0.08534      
98500   0.72212    0.03370    0.05930    0.03115      0.58973      0.08231      0.04004      0.67337      0.08482      
98600   0.72211    0.03370    0.05930    0.03117      0.58970      0.08242      0.04010      0.67333      0.08504      
98700   0.72210    0.03370    0.05930    0.03117      0.58970      0.08238      0.04010      0.67333      0.08494      
98800   0.72211    0.03370    0.05929    0.03115      0.58970      0.08268      0.04008      0.67332      0.08529      
98900   0.72210    0.03370    0.05929    0.03115      0.58969      0.08257      0.04006      0.67334      0.08522      
99000   0.72209    0.03370    0.05929    0.03119      0.58967      0.08236      0.04012      0.67329      0.08491      
99100   0.72208    0.03370    0.05929    0.03115      0.58972      0.08225      0.04006      0.67340      0.08496      
99200   0.72206    0.03369    0.05929    0.03119      0.58965      0.08242      0.04012      0.67332      0.08511      
99300   0.72206    0.03369    0.05928    0.03120      0.58964      0.08249      0.04012      0.67330      0.08517      
99400   0.72205    0.03368    0.05928    0.03115      0.58966      0.08271      0.04007      0.67330      0.08546      
99500   0.72204    0.03368    0.05928    0.03114      0.58968      0.08265      0.04005      0.67334      0.08530      
99600   0.72202    0.03367    0.05928    0.03118      0.58964      0.08254      0.04011      0.67329      0.08515      
99700   0.72202    0.03367    0.05928    0.03122      0.58959      0.08262      0.04013      0.67322      0.08514      
99800   0.72201    0.03367    0.05927    0.03118      0.58961      0.08277      0.04009      0.67328      0.08549      
99900   0.72200    0.03367    0.05927    0.03121      0.58959      0.08254      0.04013      0.67324      0.08520      
100000  0.72199    0.03367    0.05927    0.03115      0.58966      0.08242      0.04005      0.67335      0.08500      
100100  0.72199    0.03367    0.05927    0.03118      0.58964      0.08243      0.04010      0.67337      0.08504      
100200  0.72198    0.03366    0.05926    0.03118      0.58964      0.08242      0.04010      0.67332      0.08506      
100300  0.72197    0.03366    0.05926    0.03115      0.58963      0.08266      0.04007      0.67329      0.08536      
100400  0.72196    0.03366    0.05926    0.03115      0.58965      0.08248      0.04007      0.67334      0.08508      
100500  0.72196    0.03366    0.05926    0.03113      0.58966      0.08251      0.04006      0.67331      0.08518      
100600  0.72195    0.03366    0.05926    0.03114      0.58965      0.08243      0.04005      0.67333      0.08499      
100700  0.72194    0.03366    0.05926    0.03111      0.58971      0.08204      0.04004      0.67339      0.08445      
100800  0.72193    0.03365    0.05926    0.03115      0.58961      0.08257      0.04009      0.67327      0.08524      
100900  0.72192    0.03365    0.05925    0.03115      0.58962      0.08245      0.04008      0.67329      0.08522      
101000  0.72191    0.03364    0.05925    0.03116      0.58958      0.08273      0.04007      0.67325      0.08543      
101100  0.72190    0.03363    0.05925    0.03112      0.58964      0.08255      0.04003      0.67330      0.08522      
101200  0.72190    0.03363    0.05925    0.03120      0.58958      0.08236      0.04012      0.67322      0.08494      
101300  0.72189    0.03363    0.05925    0.03115      0.58960      0.08265      0.04004      0.67323      0.08552      
101400  0.72188    0.03363    0.05925    0.03116      0.58958      0.08253      0.04007      0.67324      0.08530      
101500  0.72187    0.03363    0.05924    0.03115      0.58960      0.08254      0.04008      0.67325      0.08530      
101600  0.72185    0.03362    0.05924    0.03114      0.58961      0.08240      0.04005      0.67323      0.08510      
101700  0.72185    0.03362    0.05923    0.03119      0.58957      0.08239      0.04012      0.67320      0.08510      
101800  0.72184    0.03362    0.05923    0.03114      0.58956      0.08285      0.04006      0.67319      0.08579      
101900  0.72183    0.03362    0.05923    0.03115      0.58959      0.08237      0.04006      0.67328      0.08513      
102000  0.72182    0.03362    0.05923    0.03116      0.58959      0.08229      0.04006      0.67323      0.08492      
102100  0.72181    0.03361    0.05923    0.03117      0.58953      0.08271      0.04007      0.67317      0.08561      
102200  0.72180    0.03361    0.05922    0.03115      0.58958      0.08244      0.04004      0.67323      0.08526      
102300  0.72179    0.03361    0.05922    0.03116      0.58957      0.08229      0.04004      0.67322      0.08488      
102400  0.72179    0.03361    0.05922    0.03111      0.58961      0.08237      0.04000      0.67327      0.08513      
102500  0.72178    0.03360    0.05922    0.03113      0.58957      0.08254      0.04002      0.67323      0.08530      
102600  0.72177    0.03360    0.05921    0.03116      0.58957      0.08232      0.04006      0.67320      0.08495      
102700  0.72176    0.03359    0.05921    0.03119      0.58949      0.08270      0.04012      0.67309      0.08548      
102800  0.72176    0.03360    0.05921    0.03114      0.58955      0.08264      0.04004      0.67319      0.08537      
102900  0.72175    0.03360    0.05920    0.03117      0.58952      0.08260      0.04007      0.67315      0.08535      
103000  0.72174    0.03358    0.05920    0.03116      0.58954      0.08255      0.04005      0.67316      0.08518      
103100  0.72173    0.03358    0.05920    0.03116      0.58955      0.08231      0.04010      0.67317      0.08478      
103200  0.72172    0.03357    0.05919    0.03120      0.58951      0.08234      0.04013      0.67316      0.08486      
103300  0.72171    0.03358    0.05919    0.03119      0.58951      0.08243      0.04009      0.67315      0.08512      
103400  0.72170    0.03357    0.05919    0.03117      0.58951      0.08268      0.04009      0.67313      0.08547      
103500  0.72169    0.03356    0.05918    0.03115      0.58958      0.08218      0.04006      0.67327      0.08472      
103600  0.72168    0.03356    0.05918    0.03116      0.58956      0.08215      0.04006      0.67322      0.08476      
103700  0.72167    0.03356    0.05918    0.03119      0.58952      0.08230      0.04009      0.67319      0.08492      
103800  0.72167    0.03355    0.05918    0.03122      0.58948      0.08242      0.04014      0.67316      0.08515      
103900  0.72166    0.03356    0.05917    0.03113      0.58955      0.08254      0.04002      0.67325      0.08514      
104000  0.72164    0.03355    0.05917    0.03112      0.58956      0.08239      0.04002      0.67328      0.08505      
104100  0.72164    0.03355    0.05917    0.03114      0.58952      0.08268      0.04004      0.67318      0.08543      
104200  0.72163    0.03355    0.05916    0.03115      0.58952      0.08248      0.04007      0.67319      0.08518      
104300  0.72162    0.03353    0.05916    0.03119      0.58951      0.08224      0.04010      0.67317      0.08481      
104400  0.72160    0.03354    0.05916    0.03117      0.58947      0.08264      0.04009      0.67312      0.08539      
104500  0.72159    0.03353    0.05915    0.03119      0.58947      0.08248      0.04010      0.67311      0.08510      
104600  0.72158    0.03353    0.05915    0.03115      0.58951      0.08250      0.04003      0.67320      0.08532      
104700  0.72157    0.03352    0.05914    0.03115      0.58952      0.08237      0.04004      0.67319      0.08497      
104800  0.72156    0.03352    0.05914    0.03114      0.58953      0.08244      0.04002      0.67320      0.08517      
104900  0.72155    0.03352    0.05914    0.03116      0.58948      0.08253      0.04008      0.67313      0.08532      
105000  0.72155    0.03352    0.05914    0.03116      0.58947      0.08255      0.04008      0.67309      0.08528      
105100  0.72154    0.03351    0.05913    0.03115      0.58950      0.08238      0.04006      0.67317      0.08500      
105200  0.72153    0.03351    0.05913    0.03116      0.58948      0.08243      0.04007      0.67314      0.08508      
105300  0.72152    0.03351    0.05913    0.03117      0.58946      0.08243      0.04007      0.67310      0.08508      
105400  0.72151    0.03351    0.05913    0.03116      0.58947      0.08242      0.04006      0.67312      0.08511      
105500  0.72150    0.03351    0.05913    0.03117      0.58945      0.08248      0.04008      0.67311      0.08517      
105600  0.72149    0.03351    0.05913    0.03115      0.58945      0.08255      0.04006      0.67309      0.08520      
srun: Job step aborted: Waiting up to 32 seconds for job step to finish.
slurmstepd: error: *** STEP 7026316.0 ON gpu41 CANCELLED AT 2025-04-29T18:04:12 DUE TO TIME LIMIT ***
slurmstepd: error: *** JOB 7026316 ON gpu41 CANCELLED AT 2025-04-29T18:04:12 DUE TO TIME LIMIT ***
