
***************************************************************
*                 Welcome to use GPUMD                        *
*    (Graphics Processing Units Molecular Dynamics)           *
*              Master version after 3.9.5                     *
*              This is the nep executable                     *
***************************************************************


---------------------------------------------------------------
GPU information:
---------------------------------------------------------------

number of GPUs = 1
Device id:                   0
    Device name:             NVIDIA A100-SXM4-80GB
    Compute capability:      8.0
    Amount of global memory: 79.2517 GB
    Number of SMs:           108

---------------------------------------------------------------
Started running nep.
---------------------------------------------------------------


---------------------------------------------------------------
Started reading nep.in.
---------------------------------------------------------------

Input or default parameters:
    (default) model_type = potential.
    (default) calculation mode = train.
    (default) use NEP version 4.
    (input)   number of atom types = 1.
        (default) type 0 (C with Z = 6) has force weight of 1.
    (default) will not add the ZBL potential.
    (input)   radial cutoff = 4.2 A.
    (input)   angular cutoff = 3.7 A.
    (default) use global cutoff for NEP.
    (default) use global cutoff for ZBL.
    (input)   n_max_radial = 10.
    (input)   n_max_angular = 15.
    (input)   basis_size_radial = 10.
    (input)   basis_size_angular = 15.
    (input)   l_max_3body = 4.
    (input)   l_max_4body = 2.
    (input)   l_max_5body = 1.
    (input)   number of neurons = 100.
    (input)   lambda_1 = 0.05.
    (input)   lambda_2 = 0.05.
    (input)   lambda_e = 1.
    (input)   lambda_f = 1.
    (input)   lambda_v = 0.1.
    (default) lambda_shear = 1.
    (default) force_delta = 0.
    (input)   batch size = 100000.
    (input)   population size = 50.
    (input)   maximum number of generations = 500000.
Some calculated parameters:
    number of radial descriptor components = 11.
    number of angular descriptor components = 96.
    total number of descriptor components = 107.
    NN architecture = 107-100-1.
    number of NN parameters to be optimized = 10901.
    number of descriptor parameters to be optimized = 377.
    total number of parameters to be optimized = 11278.

---------------------------------------------------------------
Finished reading nep.in.
---------------------------------------------------------------


---------------------------------------------------------------
Started reading train.xyz
---------------------------------------------------------------

Number of configurations = 6738.
Number of devices = 1
Number of batches = 1
Hello, I changed the batch_size from 100000 to 6738.

Batch 0:
Number of configurations = 6738.

---------------------------------------------------------------
Constructing train_set in device  0.
Total number of atoms = 379404.
Number of atoms in the largest configuration = 512.
Number of configurations having virial = 6018.
Radial descriptor with a cutoff of 4.2 A:
    Minimum number of neighbors for one atom = 0.
    Maximum number of neighbors for one atom = 98.
Angular descriptor with a cutoff of 3.7 A:
    Minimum number of neighbors for one atom = 0.
    Maximum number of neighbors for one atom = 56.
---------------------------------------------------------------


---------------------------------------------------------------
Started reading test.xyz
---------------------------------------------------------------

Number of configurations = 450.

---------------------------------------------------------------
Constructing test_set in device  0.
Total number of atoms = 28337.
Number of atoms in the largest configuration = 216.
Number of configurations having virial = 450.
Radial descriptor with a cutoff of 4.2 A:
    Minimum number of neighbors for one atom = 5.
    Maximum number of neighbors for one atom = 78.
Angular descriptor with a cutoff of 3.7 A:
    Minimum number of neighbors for one atom = 4.
    Maximum number of neighbors for one atom = 46.
---------------------------------------------------------------


---------------------------------------------------------------
Time used for initialization = 2.256300 s.
---------------------------------------------------------------


---------------------------------------------------------------
Started training.
---------------------------------------------------------------

Step    Total-Loss L1Reg-Loss L2Reg-Loss RMSE-E-Train RMSE-F-Train RMSE-V-Train RMSE-E-Test  RMSE-F-Test  RMSE-V-Test  
100     0.75728    0.04673    0.07038    0.03211      0.59923      0.08831      0.04124      0.68254      0.08799      
200     0.75723    0.04673    0.07038    0.03204      0.59912      0.08951      0.04116      0.68243      0.09080      
300     0.75714    0.04674    0.07038    0.03225      0.59895      0.08829      0.04132      0.68228      0.08802      
400     0.75716    0.04671    0.07036    0.03247      0.59876      0.08867      0.04169      0.68206      0.08908      
500     0.75710    0.04670    0.07033    0.03247      0.59885      0.08759      0.04165      0.68230      0.08828      
600     0.75698    0.04668    0.07031    0.03218      0.59914      0.08673      0.04136      0.68273      0.08720      
700     0.75711    0.04671    0.07032    0.03215      0.59911      0.08814      0.04128      0.68270      0.08878      
800     0.75703    0.04667    0.07030    0.03217      0.59907      0.08825      0.04127      0.68257      0.08934      
900     0.75706    0.04669    0.07031    0.03219      0.59895      0.08910      0.04128      0.68248      0.09012      
1000    0.75712    0.04671    0.07032    0.03235      0.59886      0.08876      0.04155      0.68251      0.08986      
1100    0.75701    0.04672    0.07031    0.03219      0.59907      0.08712      0.04131      0.68280      0.08690      
1200    0.75700    0.04669    0.07028    0.03210      0.59903      0.08894      0.04131      0.68276      0.09048      
1300    0.75699    0.04673    0.07030    0.03205      0.59901      0.08901      0.04122      0.68287      0.09037      
1400    0.75694    0.04670    0.07027    0.03211      0.59896      0.08891      0.04121      0.68285      0.09140      
1500    0.75699    0.04668    0.07026    0.03227      0.59896      0.08825      0.04127      0.68275      0.08925      
1600    0.75695    0.04668    0.07024    0.03212      0.59895      0.08953      0.04121      0.68276      0.09109      
1700    0.75695    0.04664    0.07021    0.03236      0.59886      0.08863      0.04158      0.68259      0.08926      
1800    0.75692    0.04662    0.07019    0.03218      0.59910      0.08829      0.04134      0.68285      0.08895      
1900    0.75683    0.04662    0.07019    0.03215      0.59897      0.08899      0.04134      0.68272      0.08977      
2000    0.75683    0.04657    0.07015    0.03219      0.59909      0.08823      0.04133      0.68280      0.08784      
2100    0.75676    0.04653    0.07013    0.03228      0.59907      0.08751      0.04132      0.68254      0.08789      
2200    0.75665    0.04650    0.07012    0.03219      0.59894      0.08902      0.04135      0.68251      0.09030      
2300    0.75668    0.04653    0.07014    0.03239      0.59880      0.08825      0.04147      0.68251      0.08888      
2400    0.75668    0.04650    0.07011    0.03212      0.59900      0.08952      0.04117      0.68257      0.09046      
2500    0.75671    0.04653    0.07012    0.03224      0.59890      0.08914      0.04128      0.68248      0.09079      
2600    0.75661    0.04652    0.07011    0.03236      0.59870      0.08927      0.04141      0.68234      0.09092      
2700    0.75656    0.04650    0.07009    0.03213      0.59896      0.08879      0.04126      0.68266      0.08940      
2800    0.75658    0.04648    0.07009    0.03222      0.59885      0.08946      0.04140      0.68272      0.09114      
2900    0.75656    0.04648    0.07007    0.03225      0.59896      0.08792      0.04133      0.68278      0.08795      
3000    0.75650    0.04645    0.07009    0.03224      0.59891      0.08807      0.04141      0.68249      0.08841      
3100    0.75644    0.04645    0.07006    0.03223      0.59869      0.09010      0.04139      0.68240      0.09209      
3200    0.75633    0.04640    0.07003    0.03215      0.59886      0.08891      0.04132      0.68239      0.08997      
3300    0.75632    0.04640    0.07003    0.03212      0.59891      0.08864      0.04120      0.68276      0.08985      
3400    0.75630    0.04638    0.07002    0.03222      0.59878      0.08897      0.04132      0.68245      0.09146      
3500    0.75635    0.04638    0.07001    0.03231      0.59885      0.08798      0.04138      0.68220      0.08857      
3600    0.75625    0.04637    0.07001    0.03224      0.59874      0.08885      0.04138      0.68229      0.09071      
3700    0.75620    0.04632    0.07000    0.03215      0.59884      0.08886      0.04116      0.68249      0.08945      
3800    0.75620    0.04633    0.07000    0.03237      0.59873      0.08770      0.04153      0.68236      0.08796      
3900    0.75610    0.04631    0.07001    0.03237      0.59841      0.08989      0.04141      0.68204      0.09206      
4000    0.75609    0.04632    0.07000    0.03218      0.59878      0.08822      0.04123      0.68258      0.08867      
4100    0.75607    0.04631    0.06998    0.03231      0.59862      0.08839      0.04137      0.68222      0.08900      
4200    0.75602    0.04629    0.06997    0.03212      0.59882      0.08824      0.04122      0.68281      0.08917      
4300    0.75596    0.04627    0.06995    0.03227      0.59862      0.08860      0.04146      0.68249      0.09041      
4400    0.75589    0.04628    0.06996    0.03227      0.59834      0.09032      0.04135      0.68221      0.09294      
4500    0.75589    0.04627    0.06995    0.03206      0.59878      0.08830      0.04106      0.68282      0.08991      
4600    0.75583    0.04627    0.06993    0.03200      0.59879      0.08828      0.04103      0.68289      0.08992      
4700    0.75577    0.04620    0.06989    0.03205      0.59886      0.08771      0.04115      0.68289      0.08966      
4800    0.75572    0.04617    0.06987    0.03204      0.59879      0.08844      0.04105      0.68281      0.09032      
4900    0.75574    0.04620    0.06989    0.03205      0.59868      0.08916      0.04101      0.68271      0.09107      
5000    0.75570    0.04615    0.06988    0.03200      0.59880      0.08866      0.04098      0.68266      0.09052      
5100    0.75566    0.04613    0.06987    0.03204      0.59895      0.08658      0.04102      0.68286      0.08814      
5200    0.75562    0.04613    0.06987    0.03211      0.59851      0.08993      0.04122      0.68229      0.09290      
5300    0.75556    0.04614    0.06986    0.03205      0.59868      0.08824      0.04116      0.68224      0.09057      
5400    0.75551    0.04611    0.06985    0.03205      0.59871      0.08791      0.04119      0.68259      0.08998      
5500    0.75553    0.04613    0.06986    0.03217      0.59862      0.08745      0.04123      0.68240      0.08912      
5600    0.75540    0.04602    0.06981    0.03218      0.59848      0.08911      0.04127      0.68228      0.09198      
5700    0.75534    0.04602    0.06981    0.03221      0.59856      0.08742      0.04125      0.68232      0.08884      
5800    0.75545    0.04607    0.06984    0.03224      0.59845      0.08853      0.04128      0.68208      0.09066      
5900    0.75542    0.04606    0.06985    0.03204      0.59858      0.08884      0.04113      0.68230      0.09141      
6000    0.75549    0.04611    0.06985    0.03233      0.59831      0.08890      0.04133      0.68173      0.09149      
6100    0.75542    0.04608    0.06983    0.03197      0.59876      0.08769      0.04104      0.68240      0.08952      
6200    0.75534    0.04606    0.06983    0.03215      0.59847      0.08821      0.04127      0.68216      0.08943      
6300    0.75525    0.04600    0.06980    0.03206      0.59840      0.08985      0.04116      0.68209      0.09315      
6400    0.75524    0.04600    0.06979    0.03195      0.59871      0.08794      0.04101      0.68240      0.08982      
6500    0.75525    0.04601    0.06977    0.03200      0.59866      0.08810      0.04107      0.68237      0.09035      
6600    0.75520    0.04600    0.06978    0.03211      0.59856      0.08745      0.04120      0.68233      0.08857      
6700    0.75522    0.04597    0.06976    0.03217      0.59847      0.08845      0.04119      0.68220      0.08982      
6800    0.75512    0.04598    0.06975    0.03213      0.59840      0.08864      0.04124      0.68210      0.08985      
6900    0.75518    0.04599    0.06976    0.03211      0.59844      0.08889      0.04128      0.68207      0.09029      
7000    0.75511    0.04597    0.06975    0.03194      0.59864      0.08818      0.04103      0.68255      0.08967      
7100    0.75506    0.04597    0.06973    0.03207      0.59849      0.08797      0.04114      0.68222      0.08924      
7200    0.75498    0.04592    0.06971    0.03204      0.59852      0.08802      0.04121      0.68211      0.08948      
7300    0.75495    0.04591    0.06968    0.03213      0.59847      0.08744      0.04125      0.68219      0.08859      
7400    0.75492    0.04587    0.06968    0.03202      0.59837      0.08989      0.04120      0.68227      0.09174      
7500    0.75493    0.04587    0.06968    0.03216      0.59841      0.08822      0.04135      0.68235      0.08922      
7600    0.75487    0.04584    0.06967    0.03207      0.59844      0.08861      0.04120      0.68216      0.09009      
7700    0.75496    0.04587    0.06967    0.03229      0.59820      0.08928      0.04149      0.68212      0.09112      
7800    0.75487    0.04586    0.06966    0.03232      0.59825      0.08783      0.04147      0.68209      0.08913      
7900    0.75482    0.04589    0.06966    0.03214      0.59832      0.08817      0.04131      0.68232      0.08954      
8000    0.75485    0.04586    0.06962    0.03226      0.59844      0.08675      0.04141      0.68229      0.08745      
8100    0.75482    0.04588    0.06960    0.03227      0.59825      0.08813      0.04133      0.68202      0.09041      
8200    0.75477    0.04589    0.06961    0.03210      0.59837      0.08801      0.04129      0.68232      0.08996      
8300    0.75474    0.04583    0.06957    0.03219      0.59837      0.08776      0.04134      0.68235      0.08888      
8400    0.75469    0.04579    0.06956    0.03220      0.59827      0.08855      0.04128      0.68224      0.09062      
8500    0.75458    0.04578    0.06954    0.03202      0.59841      0.08823      0.04116      0.68241      0.08964      
8600    0.75467    0.04577    0.06953    0.03210      0.59852      0.08756      0.04111      0.68244      0.08896      
8700    0.75460    0.04577    0.06952    0.03208      0.59843      0.08802      0.04109      0.68249      0.09008      
8800    0.75456    0.04579    0.06953    0.03212      0.59839      0.08731      0.04127      0.68235      0.08881      
8900    0.75462    0.04582    0.06952    0.03220      0.59818      0.08905      0.04121      0.68219      0.09172      
9000    0.75451    0.04580    0.06951    0.03218      0.59824      0.08776      0.04128      0.68243      0.08988      
9100    0.75451    0.04577    0.06948    0.03216      0.59826      0.08822      0.04120      0.68230      0.09143      
9200    0.75451    0.04576    0.06947    0.03206      0.59832      0.08906      0.04103      0.68233      0.09128      
9300    0.75437    0.04575    0.06945    0.03209      0.59811      0.08979      0.04121      0.68223      0.09229      
9400    0.75434    0.04571    0.06944    0.03210      0.59825      0.08841      0.04116      0.68219      0.09024      
9500    0.75430    0.04569    0.06943    0.03210      0.59835      0.08741      0.04115      0.68234      0.08902      
9600    0.75434    0.04567    0.06944    0.03223      0.59816      0.08848      0.04133      0.68219      0.09079      
9700    0.75430    0.04567    0.06942    0.03208      0.59839      0.08739      0.04122      0.68243      0.08773      
9800    0.75426    0.04569    0.06942    0.03201      0.59829      0.08854      0.04109      0.68235      0.09025      
9900    0.75424    0.04564    0.06939    0.03231      0.59814      0.08763      0.04146      0.68211      0.08921      
10000   0.75418    0.04566    0.06938    0.03190      0.59849      0.08749      0.04092      0.68253      0.08893      
10100   0.75418    0.04563    0.06936    0.03181      0.59855      0.08823      0.04092      0.68263      0.08959      
10200   0.75411    0.04564    0.06935    0.03216      0.59826      0.08707      0.04125      0.68241      0.08833      
10300   0.75407    0.04561    0.06933    0.03201      0.59836      0.08747      0.04105      0.68230      0.08863      
10400   0.75405    0.04563    0.06936    0.03207      0.59822      0.08766      0.04110      0.68222      0.08887      
10500   0.75405    0.04562    0.06935    0.03213      0.59811      0.08845      0.04118      0.68202      0.08967      
10600   0.75401    0.04561    0.06933    0.03194      0.59827      0.08858      0.04102      0.68237      0.09099      
10700   0.75394    0.04557    0.06931    0.03196      0.59830      0.08800      0.04096      0.68227      0.09008      
10800   0.75396    0.04558    0.06930    0.03186      0.59844      0.08776      0.04093      0.68249      0.08970      
10900   0.75387    0.04551    0.06925    0.03216      0.59814      0.08806      0.04131      0.68221      0.08988      
11000   0.75373    0.04541    0.06921    0.03209      0.59821      0.08811      0.04117      0.68219      0.08991      
11100   0.75371    0.04543    0.06921    0.03224      0.59804      0.08795      0.04147      0.68219      0.09026      
11200   0.75364    0.04543    0.06920    0.03210      0.59812      0.08790      0.04129      0.68229      0.09034      
11300   0.75366    0.04544    0.06919    0.03211      0.59814      0.08793      0.04121      0.68218      0.08999      
11400   0.75361    0.04544    0.06919    0.03199      0.59812      0.08862      0.04115      0.68235      0.09092      
11500   0.75360    0.04542    0.06918    0.03201      0.59815      0.08842      0.04116      0.68211      0.09132      
11600   0.75344    0.04537    0.06915    0.03214      0.59800      0.08775      0.04132      0.68212      0.09007      
11700   0.75356    0.04542    0.06915    0.03208      0.59818      0.08717      0.04117      0.68230      0.08912      
11800   0.75356    0.04540    0.06916    0.03232      0.59790      0.08779      0.04150      0.68194      0.09056      
11900   0.75353    0.04541    0.06917    0.03197      0.59808      0.08900      0.04115      0.68209      0.09146      
12000   0.75357    0.04539    0.06916    0.03212      0.59800      0.08901      0.04129      0.68192      0.09130      
12100   0.75360    0.04542    0.06917    0.03210      0.59817      0.08744      0.04105      0.68234      0.08937      
12200   0.75357    0.04540    0.06915    0.03207      0.59820      0.08746      0.04129      0.68237      0.08903      
12300   0.75353    0.04537    0.06912    0.03208      0.59816      0.08790      0.04117      0.68228      0.08950      
12400   0.75344    0.04536    0.06911    0.03205      0.59814      0.08780      0.04125      0.68225      0.08989      
12500   0.75348    0.04538    0.06912    0.03219      0.59795      0.08839      0.04134      0.68175      0.09135      
12600   0.75343    0.04539    0.06911    0.03204      0.59803      0.08866      0.04108      0.68193      0.09119      
12700   0.75334    0.04535    0.06908    0.03206      0.59806      0.08791      0.04124      0.68179      0.09116      
12800   0.75339    0.04533    0.06906    0.03219      0.59816      0.08661      0.04142      0.68217      0.08906      
12900   0.75330    0.04533    0.06907    0.03190      0.59822      0.08786      0.04104      0.68204      0.09006      
13000   0.75336    0.04528    0.06904    0.03204      0.59825      0.08747      0.04117      0.68207      0.08939      
13100   0.75330    0.04531    0.06904    0.03208      0.59805      0.08810      0.04120      0.68195      0.09084      
13200   0.75328    0.04529    0.06902    0.03208      0.59794      0.08961      0.04113      0.68174      0.09299      
13300   0.75321    0.04526    0.06900    0.03193      0.59817      0.08845      0.04104      0.68201      0.09170      
13400   0.75319    0.04527    0.06902    0.03202      0.59803      0.08852      0.04122      0.68191      0.09049      
13500   0.75312    0.04521    0.06895    0.03210      0.59804      0.08827      0.04128      0.68176      0.09078      
13600   0.75312    0.04521    0.06896    0.03195      0.59817      0.08835      0.04112      0.68208      0.09100      
13700   0.75310    0.04521    0.06895    0.03206      0.59814      0.08747      0.04120      0.68205      0.08999      
13800   0.75317    0.04525    0.06897    0.03209      0.59815      0.08715      0.04126      0.68187      0.09005      
13900   0.75311    0.04522    0.06895    0.03202      0.59816      0.08761      0.04125      0.68203      0.09059      
14000   0.75311    0.04521    0.06895    0.03214      0.59807      0.08734      0.04113      0.68189      0.08977      
14100   0.75302    0.04518    0.06893    0.03207      0.59806      0.08778      0.04118      0.68204      0.09214      
14200   0.75292    0.04514    0.06890    0.03213      0.59799      0.08757      0.04129      0.68197      0.09021      
14300   0.75289    0.04515    0.06890    0.03191      0.59807      0.08848      0.04098      0.68198      0.09145      
14400   0.75290    0.04513    0.06889    0.03206      0.59798      0.08838      0.04117      0.68189      0.09091      
14500   0.75278    0.04510    0.06889    0.03202      0.59799      0.08767      0.04108      0.68200      0.09046      
14600   0.75277    0.04510    0.06889    0.03205      0.59807      0.08668      0.04117      0.68193      0.08870      
14700   0.75269    0.04505    0.06886    0.03183      0.59811      0.08832      0.04086      0.68204      0.09201      
14800   0.75272    0.04508    0.06886    0.03203      0.59796      0.08786      0.04110      0.68188      0.09039      
14900   0.75267    0.04506    0.06885    0.03215      0.59795      0.08657      0.04134      0.68179      0.08913      
15000   0.75266    0.04504    0.06883    0.03210      0.59791      0.08777      0.04113      0.68172      0.09007      
15100   0.75269    0.04507    0.06883    0.03202      0.59806      0.08718      0.04112      0.68194      0.08867      
15200   0.75262    0.04505    0.06884    0.03213      0.59788      0.08715      0.04133      0.68184      0.08895      
15300   0.75262    0.04505    0.06882    0.03205      0.59795      0.08752      0.04105      0.68199      0.09057      
15400   0.75253    0.04503    0.06882    0.03204      0.59790      0.08740      0.04121      0.68188      0.09014      
15500   0.75246    0.04499    0.06880    0.03194      0.59787      0.08862      0.04093      0.68184      0.09233      
15600   0.75237    0.04496    0.06879    0.03204      0.59788      0.08709      0.04115      0.68185      0.09003      
15700   0.75234    0.04494    0.06877    0.03208      0.59787      0.08691      0.04108      0.68186      0.08962      
15800   0.75233    0.04494    0.06875    0.03188      0.59793      0.08820      0.04088      0.68187      0.09136      
15900   0.75232    0.04493    0.06872    0.03198      0.59793      0.08762      0.04107      0.68179      0.09038      
16000   0.75219    0.04489    0.06872    0.03197      0.59795      0.08664      0.04110      0.68186      0.08915      
16100   0.75221    0.04487    0.06870    0.03203      0.59787      0.08744      0.04115      0.68175      0.09016      
16200   0.75217    0.04487    0.06869    0.03234      0.59754      0.08727      0.04152      0.68121      0.08986      
16300   0.75213    0.04483    0.06866    0.03221      0.59781      0.08623      0.04130      0.68153      0.08851      
16400   0.75212    0.04485    0.06867    0.03198      0.59788      0.08738      0.04102      0.68163      0.09029      
16500   0.75212    0.04485    0.06866    0.03186      0.59807      0.08678      0.04084      0.68180      0.08884      
16600   0.75211    0.04482    0.06865    0.03198      0.59782      0.08842      0.04103      0.68161      0.09047      
16700   0.75208    0.04483    0.06864    0.03207      0.59790      0.08642      0.04112      0.68176      0.08818      
16800   0.75198    0.04479    0.06860    0.03204      0.59780      0.08763      0.04122      0.68159      0.08907      
16900   0.75192    0.04472    0.06857    0.03189      0.59800      0.08737      0.04100      0.68185      0.08906      
17000   0.75193    0.04475    0.06857    0.03198      0.59788      0.08757      0.04098      0.68182      0.08993      
17100   0.75192    0.04471    0.06856    0.03197      0.59790      0.08791      0.04100      0.68185      0.09002      
17200   0.75194    0.04472    0.06857    0.03201      0.59780      0.08850      0.04109      0.68173      0.09253      
17300   0.75184    0.04469    0.06855    0.03203      0.59779      0.08777      0.04122      0.68157      0.09061      
17400   0.75190    0.04471    0.06854    0.03201      0.59782      0.08825      0.04106      0.68153      0.09070      
17500   0.75189    0.04469    0.06853    0.03197      0.59806      0.08636      0.04096      0.68193      0.08848      
17600   0.75178    0.04466    0.06852    0.03208      0.59772      0.08788      0.04108      0.68155      0.09013      
17700   0.75176    0.04467    0.06852    0.03198      0.59773      0.08853      0.04113      0.68158      0.09183      
17800   0.75175    0.04471    0.06852    0.03211      0.59766      0.08755      0.04118      0.68161      0.08984      
17900   0.75178    0.04472    0.06852    0.03188      0.59783      0.08835      0.04093      0.68179      0.09200      
18000   0.75180    0.04470    0.06850    0.03202      0.59792      0.08659      0.04108      0.68181      0.08888      
18100   0.75177    0.04468    0.06848    0.03198      0.59784      0.08797      0.04102      0.68190      0.09153      
18200   0.75166    0.04467    0.06846    0.03224      0.59766      0.08631      0.04128      0.68151      0.08898      
18300   0.75161    0.04464    0.06845    0.03200      0.59787      0.08660      0.04109      0.68186      0.08917      
18400   0.75160    0.04459    0.06843    0.03198      0.59778      0.08830      0.04102      0.68164      0.09163      
18500   0.75152    0.04457    0.06841    0.03209      0.59774      0.08711      0.04118      0.68142      0.08859      
18600   0.75149    0.04453    0.06840    0.03195      0.59782      0.08787      0.04097      0.68156      0.08988      
18700   0.75149    0.04451    0.06839    0.03206      0.59783      0.08690      0.04115      0.68168      0.08824      
18800   0.75152    0.04458    0.06840    0.03198      0.59783      0.08723      0.04099      0.68181      0.08908      
18900   0.75151    0.04455    0.06840    0.03217      0.59758      0.08814      0.04127      0.68130      0.09035      
19000   0.75148    0.04454    0.06839    0.03205      0.59771      0.08801      0.04106      0.68167      0.08941      
19100   0.75149    0.04454    0.06838    0.03200      0.59779      0.08778      0.04113      0.68170      0.09015      
19200   0.75148    0.04454    0.06839    0.03196      0.59783      0.08755      0.04093      0.68176      0.08960      
19300   0.75138    0.04453    0.06838    0.03217      0.59756      0.08731      0.04134      0.68145      0.08920      
19400   0.75136    0.04451    0.06837    0.03200      0.59782      0.08669      0.04113      0.68184      0.08848      
19500   0.75130    0.04452    0.06836    0.03191      0.59776      0.08743      0.04100      0.68180      0.08951      
19600   0.75132    0.04453    0.06836    0.03205      0.59773      0.08668      0.04109      0.68171      0.08849      
19700   0.75135    0.04457    0.06837    0.03196      0.59770      0.08745      0.04116      0.68171      0.08945      
19800   0.75133    0.04451    0.06834    0.03189      0.59771      0.08880      0.04091      0.68161      0.09173      
19900   0.75125    0.04452    0.06834    0.03208      0.59767      0.08651      0.04125      0.68148      0.08876      
20000   0.75122    0.04449    0.06833    0.03200      0.59771      0.08697      0.04121      0.68154      0.08850      
20100   0.75120    0.04445    0.06831    0.03212      0.59765      0.08675      0.04121      0.68135      0.08820      
20200   0.75122    0.04446    0.06831    0.03188      0.59777      0.08805      0.04094      0.68166      0.09088      
20300   0.75117    0.04446    0.06830    0.03207      0.59768      0.08661      0.04118      0.68145      0.08780      
20400   0.75113    0.04445    0.06830    0.03200      0.59746      0.08905      0.04115      0.68132      0.09150      
20500   0.75106    0.04444    0.06827    0.03197      0.59763      0.08751      0.04109      0.68143      0.08915      
20600   0.75102    0.04444    0.06827    0.03189      0.59761      0.08811      0.04098      0.68154      0.09039      
20700   0.75106    0.04441    0.06825    0.03206      0.59764      0.08693      0.04111      0.68159      0.08833      
20800   0.75101    0.04440    0.06823    0.03212      0.59761      0.08652      0.04118      0.68143      0.08748      
20900   0.75108    0.04444    0.06824    0.03193      0.59768      0.08779      0.04104      0.68159      0.09062      
21000   0.75105    0.04441    0.06823    0.03220      0.59753      0.08678      0.04136      0.68137      0.08852      
21100   0.75100    0.04440    0.06822    0.03204      0.59769      0.08648      0.04116      0.68152      0.08804      
21200   0.75097    0.04439    0.06823    0.03204      0.59763      0.08680      0.04107      0.68165      0.08817      
21300   0.75089    0.04439    0.06821    0.03201      0.59755      0.08737      0.04101      0.68132      0.08938      
21400   0.75096    0.04436    0.06819    0.03208      0.59758      0.08756      0.04102      0.68139      0.08966      
21500   0.75093    0.04436    0.06819    0.03207      0.59750      0.08804      0.04122      0.68130      0.09026      
21600   0.75084    0.04433    0.06817    0.03204      0.59747      0.08835      0.04110      0.68123      0.09149      
21700   0.75078    0.04428    0.06815    0.03200      0.59770      0.08646      0.04097      0.68153      0.08822      
21800   0.75076    0.04432    0.06816    0.03203      0.59758      0.08676      0.04099      0.68136      0.08891      
21900   0.75077    0.04432    0.06814    0.03209      0.59749      0.08733      0.04124      0.68137      0.08947      
22000   0.75074    0.04429    0.06814    0.03212      0.59753      0.08658      0.04119      0.68130      0.08814      
22100   0.75070    0.04424    0.06812    0.03203      0.59757      0.08732      0.04103      0.68137      0.08939      
22200   0.75064    0.04423    0.06812    0.03200      0.59763      0.08658      0.04098      0.68150      0.08856      
22300   0.75060    0.04421    0.06809    0.03198      0.59760      0.08721      0.04111      0.68151      0.08987      
22400   0.75053    0.04417    0.06807    0.03196      0.59763      0.08695      0.04100      0.68172      0.08908      
22500   0.75059    0.04422    0.06807    0.03191      0.59766      0.08725      0.04095      0.68189      0.09010      
22600   0.75058    0.04421    0.06806    0.03206      0.59751      0.08728      0.04096      0.68166      0.08951      
22700   0.75046    0.04419    0.06805    0.03190      0.59761      0.08715      0.04082      0.68177      0.08950      
22800   0.75043    0.04416    0.06803    0.03207      0.59737      0.08804      0.04115      0.68139      0.09155      
22900   0.75032    0.04412    0.06801    0.03206      0.59743      0.08698      0.04106      0.68140      0.08911      
23000   0.75033    0.04414    0.06803    0.03198      0.59748      0.08701      0.04105      0.68154      0.08965      
23100   0.75036    0.04412    0.06801    0.03202      0.59739      0.08823      0.04107      0.68127      0.09069      
23200   0.75033    0.04414    0.06802    0.03204      0.59734      0.08799      0.04116      0.68139      0.08960      
23300   0.75033    0.04412    0.06800    0.03190      0.59753      0.08785      0.04085      0.68150      0.09015      
23400   0.75025    0.04409    0.06800    0.03201      0.59750      0.08647      0.04102      0.68146      0.08813      
23500   0.75022    0.04403    0.06798    0.03198      0.59749      0.08733      0.04094      0.68143      0.08978      
23600   0.75022    0.04406    0.06799    0.03197      0.59735      0.08849      0.04107      0.68121      0.09074      
23700   0.75021    0.04407    0.06798    0.03212      0.59733      0.08719      0.04107      0.68116      0.08896      
23800   0.75016    0.04404    0.06797    0.03194      0.59752      0.08694      0.04086      0.68146      0.08924      
23900   0.75013    0.04403    0.06794    0.03217      0.59734      0.08641      0.04116      0.68142      0.08844      
24000   0.75004    0.04399    0.06791    0.03207      0.59745      0.08614      0.04105      0.68149      0.08850      
24100   0.75004    0.04399    0.06791    0.03200      0.59749      0.08641      0.04096      0.68163      0.08875      
24200   0.74997    0.04397    0.06791    0.03187      0.59757      0.08650      0.04088      0.68181      0.08849      
24300   0.74991    0.04394    0.06789    0.03200      0.59735      0.08736      0.04096      0.68141      0.08944      
24400   0.74986    0.04392    0.06788    0.03203      0.59730      0.08720      0.04109      0.68154      0.08943      
24500   0.74985    0.04395    0.06788    0.03203      0.59721      0.08788      0.04107      0.68133      0.09078      
24600   0.74988    0.04398    0.06789    0.03198      0.59731      0.08713      0.04104      0.68140      0.08914      
24700   0.74986    0.04396    0.06788    0.03202      0.59728      0.08722      0.04108      0.68128      0.08926      
24800   0.74986    0.04396    0.06787    0.03191      0.59737      0.08751      0.04100      0.68140      0.08984      
24900   0.74986    0.04391    0.06785    0.03205      0.59724      0.08808      0.04113      0.68128      0.09061      
25000   0.74987    0.04391    0.06784    0.03193      0.59750      0.08685      0.04106      0.68146      0.08916      
25100   0.74987    0.04390    0.06786    0.03199      0.59732      0.08800      0.04108      0.68142      0.09098      
25200   0.74989    0.04387    0.06785    0.03208      0.59734      0.08746      0.04118      0.68154      0.09019      
25300   0.74977    0.04380    0.06784    0.03204      0.59743      0.08666      0.04112      0.68159      0.08870      
25400   0.74970    0.04376    0.06781    0.03182      0.59757      0.08747      0.04084      0.68161      0.08992      
25500   0.74963    0.04375    0.06779    0.03205      0.59736      0.08695      0.04114      0.68131      0.08956      
25600   0.74957    0.04373    0.06778    0.03190      0.59760      0.08567      0.04092      0.68171      0.08721      
25700   0.74954    0.04374    0.06776    0.03180      0.59750      0.08743      0.04086      0.68155      0.08961      
25800   0.74955    0.04372    0.06777    0.03191      0.59731      0.08843      0.04087      0.68112      0.09072      
25900   0.74950    0.04372    0.06775    0.03183      0.59755      0.08650      0.04086      0.68141      0.08874      
26000   0.74944    0.04371    0.06774    0.03203      0.59723      0.08731      0.04108      0.68119      0.09016      
26100   0.74943    0.04368    0.06772    0.03189      0.59742      0.08721      0.04085      0.68146      0.08931      
26200   0.74948    0.04369    0.06771    0.03185      0.59752      0.08713      0.04084      0.68164      0.08930      
26300   0.74941    0.04367    0.06769    0.03199      0.59742      0.08643      0.04102      0.68136      0.08766      
26400   0.74933    0.04364    0.06768    0.03206      0.59720      0.08750      0.04118      0.68118      0.08966      
26500   0.74931    0.04364    0.06767    0.03198      0.59723      0.08771      0.04105      0.68111      0.09036      
26600   0.74926    0.04358    0.06765    0.03210      0.59717      0.08762      0.04121      0.68107      0.08987      
26700   0.74925    0.04356    0.06764    0.03198      0.59737      0.08691      0.04103      0.68146      0.08864      
26800   0.74928    0.04358    0.06765    0.03198      0.59738      0.08691      0.04096      0.68149      0.08856      
26900   0.74931    0.04360    0.06765    0.03198      0.59735      0.08736      0.04090      0.68157      0.08959      
27000   0.74931    0.04359    0.06765    0.03199      0.59743      0.08655      0.04094      0.68147      0.08800      
27100   0.74922    0.04354    0.06764    0.03186      0.59752      0.08664      0.04089      0.68165      0.08832      
27200   0.74918    0.04357    0.06764    0.03190      0.59732      0.08756      0.04086      0.68143      0.08962      
27300   0.74922    0.04358    0.06764    0.03192      0.59732      0.08746      0.04086      0.68154      0.08945      
27400   0.74918    0.04355    0.06762    0.03213      0.59721      0.08668      0.04124      0.68134      0.08786      
27500   0.74916    0.04354    0.06760    0.03221      0.59722      0.08577      0.04132      0.68140      0.08704      
27600   0.74910    0.04356    0.06760    0.03193      0.59739      0.08621      0.04101      0.68140      0.08736      
27700   0.74909    0.04353    0.06758    0.03198      0.59729      0.08717      0.04092      0.68138      0.08872      
27800   0.74910    0.04356    0.06758    0.03195      0.59740      0.08595      0.04097      0.68151      0.08708      
27900   0.74904    0.04355    0.06756    0.03196      0.59734      0.08635      0.04098      0.68147      0.08770      
28000   0.74903    0.04352    0.06754    0.03199      0.59723      0.08751      0.04107      0.68128      0.08943      
28100   0.74902    0.04350    0.06754    0.03200      0.59729      0.08703      0.04103      0.68143      0.08866      
28200   0.74900    0.04351    0.06753    0.03212      0.59709      0.08745      0.04119      0.68125      0.09008      
28300   0.74890    0.04349    0.06752    0.03215      0.59709      0.08662      0.04122      0.68132      0.08860      
28400   0.74880    0.04343    0.06751    0.03210      0.59725      0.08513      0.04116      0.68154      0.08633      
28500   0.74882    0.04342    0.06749    0.03220      0.59699      0.08717      0.04130      0.68104      0.08955      
28600   0.74881    0.04343    0.06750    0.03205      0.59710      0.08724      0.04108      0.68105      0.08904      
28700   0.74882    0.04343    0.06750    0.03213      0.59691      0.08851      0.04129      0.68103      0.09079      
28800   0.74873    0.04345    0.06748    0.03203      0.59712      0.08650      0.04122      0.68124      0.08884      
28900   0.74875    0.04343    0.06747    0.03191      0.59721      0.08726      0.04108      0.68139      0.08947      
29000   0.74872    0.04344    0.06747    0.03185      0.59725      0.08702      0.04103      0.68139      0.08965      
29100   0.74867    0.04341    0.06745    0.03202      0.59696      0.08824      0.04108      0.68110      0.09107      
29200   0.74869    0.04344    0.06746    0.03199      0.59717      0.08620      0.04109      0.68147      0.08760      
29300   0.74862    0.04343    0.06748    0.03196      0.59703      0.08721      0.04107      0.68124      0.08977      
29400   0.74861    0.04339    0.06746    0.03201      0.59700      0.08740      0.04114      0.68110      0.08974      
29500   0.74857    0.04339    0.06745    0.03195      0.59706      0.08718      0.04108      0.68114      0.08934      
29600   0.74856    0.04337    0.06744    0.03197      0.59712      0.08653      0.04115      0.68128      0.08818      
29700   0.74857    0.04338    0.06744    0.03201      0.59712      0.08611      0.04115      0.68129      0.08789      
29800   0.74855    0.04336    0.06742    0.03213      0.59696      0.08687      0.04133      0.68132      0.08876      
29900   0.74845    0.04330    0.06739    0.03187      0.59727      0.08630      0.04105      0.68163      0.08812      
30000   0.74853    0.04332    0.06740    0.03196      0.59719      0.08662      0.04114      0.68169      0.08826      
30100   0.74851    0.04331    0.06739    0.03200      0.59709      0.08715      0.04120      0.68132      0.08851      
30200   0.74844    0.04328    0.06740    0.03192      0.59712      0.08729      0.04108      0.68138      0.08891      
30300   0.74835    0.04324    0.06739    0.03192      0.59708      0.08714      0.04105      0.68138      0.08901      
30400   0.74836    0.04324    0.06736    0.03201      0.59708      0.08670      0.04122      0.68140      0.08810      
30500   0.74840    0.04326    0.06738    0.03170      0.59738      0.08684      0.04079      0.68149      0.08790      
30600   0.74830    0.04322    0.06737    0.03179      0.59715      0.08766      0.04093      0.68134      0.08961      
30700   0.74824    0.04320    0.06735    0.03186      0.59716      0.08677      0.04094      0.68135      0.08851      
30800   0.74820    0.04317    0.06732    0.03198      0.59698      0.08741      0.04103      0.68118      0.08939      
30900   0.74815    0.04318    0.06734    0.03213      0.59688      0.08627      0.04128      0.68094      0.08769      
31000   0.74808    0.04316    0.06732    0.03198      0.59690      0.08725      0.04104      0.68111      0.08941      
31100   0.74812    0.04317    0.06731    0.03186      0.59708      0.08701      0.04092      0.68131      0.08897      
31200   0.74808    0.04313    0.06730    0.03207      0.59698      0.08602      0.04130      0.68102      0.08761      
31300   0.74807    0.04315    0.06729    0.03195      0.59696      0.08732      0.04113      0.68107      0.08952      
31400   0.74794    0.04310    0.06729    0.03189      0.59695      0.08720      0.04105      0.68118      0.08965      
31500   0.74799    0.04313    0.06727    0.03211      0.59670      0.08766      0.04118      0.68076      0.09004      
31600   0.74796    0.04313    0.06727    0.03187      0.59701      0.08673      0.04095      0.68123      0.08850      
31700   0.74803    0.04317    0.06726    0.03194      0.59701      0.08644      0.04098      0.68121      0.08865      
31800   0.74797    0.04315    0.06725    0.03191      0.59700      0.08650      0.04105      0.68107      0.08828      
31900   0.74793    0.04318    0.06726    0.03199      0.59669      0.08799      0.04108      0.68076      0.09076      
32000   0.74790    0.04316    0.06724    0.03197      0.59681      0.08725      0.04118      0.68087      0.08959      
32100   0.74781    0.04312    0.06722    0.03200      0.59681      0.08653      0.04114      0.68085      0.08880      
32200   0.74782    0.04312    0.06721    0.03193      0.59690      0.08660      0.04105      0.68103      0.08828      
32300   0.74782    0.04315    0.06722    0.03191      0.59679      0.08747      0.04113      0.68079      0.08992      
32400   0.74773    0.04311    0.06720    0.03199      0.59674      0.08682      0.04116      0.68079      0.08876      
32500   0.74768    0.04303    0.06718    0.03196      0.59684      0.08652      0.04108      0.68101      0.08828      
32600   0.74768    0.04305    0.06717    0.03195      0.59678      0.08727      0.04106      0.68106      0.08997      
32700   0.74764    0.04302    0.06715    0.03207      0.59661      0.08796      0.04118      0.68058      0.09118      
32800   0.74762    0.04304    0.06715    0.03195      0.59680      0.08682      0.04110      0.68094      0.08897      
32900   0.74766    0.04307    0.06717    0.03203      0.59656      0.08828      0.04110      0.68046      0.09095      
33000   0.74766    0.04307    0.06717    0.03202      0.59666      0.08742      0.04119      0.68054      0.09024      
33100   0.74762    0.04305    0.06715    0.03203      0.59673      0.08659      0.04119      0.68063      0.09025      
33200   0.74755    0.04302    0.06713    0.03194      0.59674      0.08718      0.04112      0.68066      0.08970      
33300   0.74752    0.04303    0.06713    0.03189      0.59680      0.08677      0.04093      0.68078      0.08956      
33400   0.74753    0.04300    0.06712    0.03200      0.59665      0.08755      0.04117      0.68056      0.09086      
33500   0.74745    0.04298    0.06710    0.03192      0.59678      0.08675      0.04104      0.68072      0.08933      
33600   0.74744    0.04298    0.06710    0.03193      0.59684      0.08582      0.04097      0.68078      0.08793      
33700   0.74740    0.04298    0.06708    0.03217      0.59650      0.08676      0.04135      0.68023      0.08939      
33800   0.74734    0.04294    0.06708    0.03192      0.59675      0.08657      0.04106      0.68080      0.08876      
33900   0.74737    0.04294    0.06708    0.03184      0.59672      0.08793      0.04100      0.68062      0.09064      
34000   0.74731    0.04294    0.06707    0.03200      0.59660      0.08697      0.04105      0.68036      0.08925      
34100   0.74734    0.04296    0.06706    0.03193      0.59670      0.08684      0.04105      0.68065      0.08877      
34200   0.74728    0.04296    0.06706    0.03200      0.59664      0.08622      0.04110      0.68059      0.08821      
34300   0.74733    0.04297    0.06705    0.03187      0.59670      0.08739      0.04099      0.68071      0.08998      
34400   0.74734    0.04295    0.06704    0.03206      0.59665      0.08636      0.04110      0.68066      0.08883      
34500   0.74733    0.04295    0.06703    0.03198      0.59671      0.08658      0.04113      0.68070      0.08880      
34600   0.74719    0.04295    0.06703    0.03212      0.59647      0.08629      0.04123      0.68042      0.08892      
34700   0.74718    0.04290    0.06700    0.03206      0.59664      0.08572      0.04112      0.68061      0.08766      
34800   0.74716    0.04288    0.06699    0.03201      0.59664      0.08628      0.04118      0.68068      0.08824      
34900   0.74718    0.04294    0.06700    0.03189      0.59671      0.08636      0.04105      0.68068      0.08837      
35000   0.74712    0.04286    0.06698    0.03202      0.59651      0.08747      0.04110      0.68041      0.09041      
35100   0.74711    0.04284    0.06696    0.03186      0.59685      0.08592      0.04088      0.68075      0.08802      
35200   0.74705    0.04284    0.06695    0.03208      0.59650      0.08676      0.04121      0.68031      0.08959      
35300   0.74713    0.04285    0.06695    0.03202      0.59658      0.08733      0.04113      0.68047      0.09059      
35400   0.74705    0.04287    0.06695    0.03199      0.59650      0.08743      0.04113      0.68031      0.09062      
35500   0.74696    0.04280    0.06693    0.03181      0.59679      0.08647      0.04091      0.68075      0.08932      
35600   0.74696    0.04281    0.06692    0.03193      0.59659      0.08718      0.04090      0.68060      0.09054      
35700   0.74690    0.04280    0.06690    0.03173      0.59682      0.08654      0.04080      0.68090      0.08907      
35800   0.74693    0.04281    0.06689    0.03183      0.59676      0.08632      0.04095      0.68080      0.08902      
35900   0.74690    0.04282    0.06688    0.03195      0.59659      0.08662      0.04101      0.68063      0.08962      
36000   0.74692    0.04282    0.06688    0.03180      0.59682      0.08609      0.04088      0.68077      0.08790      
36100   0.74683    0.04277    0.06686    0.03183      0.59666      0.08708      0.04095      0.68066      0.08976      
36200   0.74679    0.04277    0.06687    0.03202      0.59644      0.08701      0.04123      0.68037      0.08966      
36300   0.74679    0.04274    0.06687    0.03184      0.59667      0.08675      0.04102      0.68076      0.08957      
36400   0.74678    0.04272    0.06686    0.03194      0.59663      0.08629      0.04117      0.68051      0.08867      
36500   0.74674    0.04273    0.06684    0.03196      0.59649      0.08714      0.04109      0.68036      0.08992      
36600   0.74671    0.04269    0.06682    0.03186      0.59667      0.08675      0.04094      0.68058      0.08977      
36700   0.74669    0.04271    0.06683    0.03192      0.59657      0.08665      0.04110      0.68058      0.09021      
36800   0.74665    0.04266    0.06681    0.03191      0.59661      0.08658      0.04106      0.68054      0.08941      
36900   0.74665    0.04268    0.06683    0.03202      0.59645      0.08668      0.04124      0.68028      0.08978      
37000   0.74666    0.04272    0.06683    0.03194      0.59646      0.08720      0.04106      0.68043      0.09047      
37100   0.74664    0.04271    0.06682    0.03195      0.59652      0.08642      0.04106      0.68044      0.08873      
37200   0.74669    0.04274    0.06684    0.03196      0.59648      0.08666      0.04114      0.68032      0.08914      
37300   0.74674    0.04280    0.06684    0.03185      0.59654      0.08701      0.04094      0.68025      0.09014      
37400   0.74677    0.04283    0.06684    0.03191      0.59649      0.08705      0.04107      0.68018      0.09010      
37500   0.74672    0.04278    0.06682    0.03179      0.59664      0.08690      0.04088      0.68048      0.08951      
37600   0.74668    0.04275    0.06682    0.03184      0.59659      0.08677      0.04103      0.68051      0.08950      
37700   0.74661    0.04272    0.06680    0.03201      0.59640      0.08670      0.04102      0.68017      0.08889      
37800   0.74659    0.04271    0.06680    0.03198      0.59651      0.08583      0.04119      0.68027      0.08728      
37900   0.74657    0.04270    0.06679    0.03190      0.59646      0.08718      0.04092      0.68031      0.08967      
38000   0.74656    0.04269    0.06679    0.03190      0.59658      0.08607      0.04095      0.68041      0.08820      
38100   0.74659    0.04272    0.06679    0.03207      0.59643      0.08583      0.04113      0.68029      0.08796      
38200   0.74650    0.04268    0.06677    0.03189      0.59652      0.08634      0.04093      0.68027      0.08789      
38300   0.74654    0.04272    0.06679    0.03194      0.59649      0.08599      0.04103      0.68020      0.08789      
38400   0.74655    0.04270    0.06678    0.03180      0.59653      0.08745      0.04082      0.68036      0.08972      
38500   0.74649    0.04266    0.06676    0.03191      0.59647      0.08687      0.04095      0.68035      0.08917      
38600   0.74648    0.04263    0.06675    0.03197      0.59638      0.08736      0.04106      0.68005      0.08989      
38700   0.74641    0.04264    0.06676    0.03191      0.59630      0.08802      0.04094      0.68008      0.09016      
38800   0.74637    0.04262    0.06674    0.03200      0.59640      0.08616      0.04107      0.68018      0.08771      
38900   0.74637    0.04264    0.06675    0.03181      0.59655      0.08628      0.04079      0.68044      0.08737      
39000   0.74642    0.04266    0.06674    0.03192      0.59647      0.08631      0.04096      0.68028      0.08752      
39100   0.74641    0.04266    0.06673    0.03190      0.59639      0.08729      0.04097      0.68029      0.08919      
39200   0.74634    0.04262    0.06672    0.03184      0.59650      0.08675      0.04090      0.68045      0.08804      
39300   0.74629    0.04259    0.06670    0.03186      0.59648      0.08663      0.04089      0.68039      0.08827      
39400   0.74631    0.04260    0.06670    0.03195      0.59644      0.08627      0.04107      0.68029      0.08825      
39500   0.74624    0.04256    0.06667    0.03190      0.59639      0.08722      0.04096      0.68017      0.08931      
39600   0.74623    0.04254    0.06664    0.03199      0.59631      0.08748      0.04112      0.68009      0.09014      
39700   0.74618    0.04256    0.06665    0.03206      0.59622      0.08706      0.04117      0.67991      0.08930      
39800   0.74614    0.04255    0.06665    0.03202      0.59634      0.08581      0.04115      0.68011      0.08773      
39900   0.74619    0.04257    0.06665    0.03193      0.59648      0.08565      0.04103      0.68047      0.08718      
40000   0.74612    0.04253    0.06664    0.03196      0.59636      0.08634      0.04107      0.68031      0.08829      
40100   0.74609    0.04250    0.06663    0.03211      0.59623      0.08615      0.04123      0.68018      0.08821      
40200   0.74610    0.04251    0.06663    0.03202      0.59626      0.08694      0.04115      0.68025      0.08850      
40300   0.74602    0.04249    0.06661    0.03204      0.59625      0.08638      0.04117      0.68017      0.08829      
40400   0.74604    0.04247    0.06659    0.03187      0.59653      0.08577      0.04089      0.68049      0.08713      
40500   0.74603    0.04247    0.06658    0.03177      0.59659      0.08621      0.04086      0.68045      0.08788      
40600   0.74601    0.04244    0.06658    0.03182      0.59662      0.08547      0.04089      0.68055      0.08751      
40700   0.74603    0.04246    0.06656    0.03191      0.59655      0.08566      0.04104      0.68033      0.08712      
40800   0.74603    0.04246    0.06655    0.03165      0.59666      0.08711      0.04073      0.68059      0.08922      
40900   0.74600    0.04245    0.06655    0.03190      0.59643      0.08664      0.04109      0.68037      0.08890      
41000   0.74595    0.04245    0.06654    0.03179      0.59650      0.08676      0.04093      0.68048      0.08898      
41100   0.74592    0.04240    0.06653    0.03187      0.59648      0.08642      0.04105      0.68038      0.08838      
41200   0.74591    0.04242    0.06653    0.03179      0.59657      0.08606      0.04096      0.68048      0.08766      
41300   0.74590    0.04242    0.06653    0.03193      0.59626      0.08759      0.04104      0.68018      0.08977      
41400   0.74583    0.04241    0.06652    0.03180      0.59626      0.08837      0.04096      0.68013      0.09043      
41500   0.74579    0.04241    0.06653    0.03191      0.59633      0.08606      0.04109      0.68016      0.08768      
41600   0.74579    0.04240    0.06653    0.03193      0.59618      0.08751      0.04116      0.68010      0.08991      
41700   0.74572    0.04239    0.06651    0.03200      0.59619      0.08622      0.04117      0.68004      0.08794      
41800   0.74573    0.04236    0.06652    0.03187      0.59629      0.08686      0.04102      0.68019      0.08820      
41900   0.74572    0.04236    0.06649    0.03194      0.59616      0.08768      0.04112      0.68002      0.08997      
42000   0.74567    0.04231    0.06649    0.03187      0.59640      0.08609      0.04091      0.68025      0.08732      
42100   0.74562    0.04232    0.06649    0.03180      0.59640      0.08615      0.04099      0.68040      0.08708      
42200   0.74561    0.04233    0.06649    0.03167      0.59636      0.08749      0.04078      0.68035      0.08983      
42300   0.74561    0.04232    0.06648    0.03170      0.59643      0.08679      0.04076      0.68053      0.08837      
42400   0.74559    0.04232    0.06648    0.03170      0.59641      0.08673      0.04078      0.68033      0.08811      
42500   0.74557    0.04232    0.06647    0.03176      0.59645      0.08572      0.04085      0.68035      0.08714      
42600   0.74555    0.04230    0.06647    0.03169      0.59643      0.08671      0.04084      0.68041      0.08799      
42700   0.74545    0.04227    0.06645    0.03177      0.59636      0.08607      0.04086      0.68030      0.08709      
42800   0.74548    0.04226    0.06644    0.03184      0.59632      0.08615      0.04104      0.68028      0.08723      
42900   0.74542    0.04223    0.06643    0.03173      0.59633      0.08699      0.04084      0.68017      0.08855      
43000   0.74539    0.04219    0.06640    0.03190      0.59626      0.08638      0.04094      0.68023      0.08775      
43100   0.74533    0.04214    0.06638    0.03175      0.59645      0.08606      0.04079      0.68035      0.08735      
43200   0.74533    0.04217    0.06638    0.03207      0.59609      0.08619      0.04119      0.67993      0.08778      
43300   0.74528    0.04215    0.06638    0.03182      0.59628      0.08648      0.04088      0.68031      0.08797      
43400   0.74535    0.04216    0.06638    0.03192      0.59625      0.08638      0.04103      0.68027      0.08757      
43500   0.74528    0.04214    0.06637    0.03196      0.59605      0.08764      0.04108      0.67993      0.08943      
43600   0.74522    0.04209    0.06635    0.03183      0.59631      0.08640      0.04103      0.68021      0.08757      
43700   0.74519    0.04210    0.06636    0.03186      0.59632      0.08553      0.04105      0.68041      0.08665      
43800   0.74520    0.04213    0.06636    0.03188      0.59619      0.08638      0.04109      0.68019      0.08840      
43900   0.74518    0.04212    0.06634    0.03194      0.59613      0.08654      0.04106      0.68006      0.08847      
44000   0.74519    0.04210    0.06633    0.03184      0.59611      0.08808      0.04093      0.68007      0.09043      
44100   0.74515    0.04207    0.06632    0.03194      0.59612      0.08697      0.04118      0.68004      0.08914      
44200   0.74514    0.04208    0.06633    0.03191      0.59617      0.08645      0.04097      0.68027      0.08815      
44300   0.74512    0.04210    0.06633    0.03192      0.59604      0.08733      0.04112      0.68008      0.08926      
44400   0.74505    0.04209    0.06633    0.03178      0.59620      0.08657      0.04091      0.68043      0.08862      
44500   0.74502    0.04207    0.06632    0.03189      0.59612      0.08618      0.04103      0.68011      0.08845      
44600   0.74505    0.04209    0.06633    0.03189      0.59609      0.08646      0.04108      0.68008      0.08792      
44700   0.74504    0.04208    0.06633    0.03188      0.59609      0.08661      0.04112      0.68018      0.08829      
44800   0.74500    0.04206    0.06631    0.03208      0.59577      0.08774      0.04122      0.67976      0.09032      
44900   0.74495    0.04205    0.06630    0.03189      0.59604      0.08668      0.04099      0.68017      0.08818      
45000   0.74495    0.04206    0.06630    0.03187      0.59604      0.08680      0.04101      0.68031      0.08885      
45100   0.74495    0.04205    0.06629    0.03189      0.59609      0.08629      0.04098      0.68029      0.08781      
45200   0.74493    0.04204    0.06629    0.03181      0.59608      0.08716      0.04107      0.68041      0.08936      
45300   0.74487    0.04200    0.06630    0.03182      0.59614      0.08604      0.04092      0.68034      0.08782      
45400   0.74490    0.04200    0.06628    0.03193      0.59609      0.08605      0.04109      0.68025      0.08808      
45500   0.74487    0.04200    0.06627    0.03189      0.59599      0.08720      0.04100      0.68024      0.08952      
45600   0.74483    0.04199    0.06626    0.03193      0.59588      0.08774      0.04109      0.68005      0.09043      
45700   0.74480    0.04196    0.06624    0.03183      0.59610      0.08676      0.04091      0.68037      0.08866      
45800   0.74477    0.04196    0.06624    0.03171      0.59618      0.08687      0.04080      0.68048      0.08932      
45900   0.74467    0.04190    0.06620    0.03188      0.59594      0.08759      0.04101      0.68003      0.09009      
46000   0.74467    0.04188    0.06619    0.03191      0.59608      0.08619      0.04105      0.68022      0.08831      
46100   0.74471    0.04191    0.06620    0.03198      0.59593      0.08688      0.04099      0.68000      0.08911      
46200   0.74469    0.04192    0.06619    0.03187      0.59612      0.08593      0.04094      0.68027      0.08765      
46300   0.74469    0.04193    0.06620    0.03174      0.59618      0.08640      0.04074      0.68037      0.08845      
46400   0.74466    0.04192    0.06619    0.03205      0.59600      0.08507      0.04115      0.68008      0.08651      
46500   0.74463    0.04191    0.06617    0.03192      0.59596      0.08664      0.04099      0.68014      0.08904      
46600   0.74460    0.04192    0.06617    0.03191      0.59602      0.08590      0.04097      0.68022      0.08731      
46700   0.74455    0.04189    0.06615    0.03181      0.59605      0.08634      0.04089      0.68033      0.08794      
46800   0.74456    0.04193    0.06616    0.03183      0.59605      0.08593      0.04097      0.68030      0.08760      
46900   0.74457    0.04191    0.06614    0.03187      0.59600      0.08654      0.04099      0.68015      0.08842      
47000   0.74454    0.04187    0.06614    0.03187      0.59589      0.08770      0.04092      0.68003      0.09021      
47100   0.74453    0.04188    0.06615    0.03189      0.59593      0.08665      0.04096      0.68002      0.08837      
47200   0.74445    0.04188    0.06614    0.03197      0.59581      0.08648      0.04107      0.67987      0.08880      
47300   0.74438    0.04186    0.06615    0.03184      0.59588      0.08640      0.04099      0.68005      0.08838      
47400   0.74441    0.04187    0.06615    0.03207      0.59580      0.08524      0.04120      0.67972      0.08684      
47500   0.74440    0.04188    0.06614    0.03189      0.59583      0.08652      0.04091      0.67990      0.08892      
47600   0.74441    0.04186    0.06613    0.03195      0.59578      0.08694      0.04102      0.67971      0.08926      
47700   0.74433    0.04184    0.06612    0.03179      0.59590      0.08680      0.04090      0.67991      0.08893      
47800   0.74426    0.04179    0.06610    0.03196      0.59576      0.08652      0.04113      0.67976      0.08823      
47900   0.74429    0.04180    0.06608    0.03194      0.59590      0.08578      0.04107      0.67996      0.08752      
48000   0.74423    0.04179    0.06606    0.03205      0.59572      0.08614      0.04120      0.67968      0.08831      
48100   0.74419    0.04176    0.06605    0.03195      0.59574      0.08687      0.04106      0.67981      0.08912      
48200   0.74414    0.04173    0.06604    0.03187      0.59592      0.08581      0.04091      0.67991      0.08723      
48300   0.74413    0.04175    0.06604    0.03200      0.59565      0.08688      0.04104      0.67970      0.08929      
48400   0.74414    0.04177    0.06603    0.03195      0.59574      0.08649      0.04098      0.67979      0.08846      
48500   0.74410    0.04172    0.06602    0.03193      0.59577      0.08660      0.04098      0.67973      0.08852      
48600   0.74412    0.04175    0.06603    0.03189      0.59576      0.08682      0.04089      0.67981      0.08886      
48700   0.74409    0.04175    0.06602    0.03193      0.59580      0.08586      0.04093      0.67980      0.08771      
48800   0.74406    0.04173    0.06601    0.03209      0.59549      0.08738      0.04120      0.67934      0.09002      
48900   0.74411    0.04176    0.06601    0.03188      0.59583      0.08639      0.04099      0.67992      0.08868      
49000   0.74404    0.04173    0.06599    0.03190      0.59585      0.08575      0.04100      0.67996      0.08748      
49100   0.74402    0.04173    0.06599    0.03187      0.59569      0.08735      0.04093      0.67966      0.09014      
49200   0.74398    0.04169    0.06598    0.03193      0.59569      0.08681      0.04105      0.67963      0.08920      
49300   0.74399    0.04170    0.06597    0.03184      0.59583      0.08649      0.04097      0.67976      0.08882      
49400   0.74401    0.04168    0.06595    0.03179      0.59592      0.08657      0.04085      0.67988      0.08905      
49500   0.74397    0.04167    0.06594    0.03198      0.59580      0.08583      0.04105      0.67980      0.08755      
49600   0.74389    0.04165    0.06592    0.03186      0.59580      0.08653      0.04093      0.67976      0.08851      
49700   0.74390    0.04167    0.06594    0.03193      0.59572      0.08649      0.04101      0.67958      0.08894      
49800   0.74384    0.04166    0.06593    0.03178      0.59580      0.08670      0.04092      0.67965      0.08904      
49900   0.74387    0.04166    0.06594    0.03171      0.59588      0.08676      0.04070      0.67989      0.08854      
50000   0.74388    0.04164    0.06592    0.03187      0.59580      0.08649      0.04102      0.67978      0.08846      
50100   0.74382    0.04162    0.06591    0.03192      0.59561      0.08754      0.04097      0.67950      0.09015      
50200   0.74378    0.04158    0.06590    0.03205      0.59563      0.08630      0.04112      0.67947      0.08800      
50300   0.74370    0.04156    0.06588    0.03182      0.59576      0.08687      0.04088      0.67969      0.08859      
50400   0.74364    0.04154    0.06586    0.03190      0.59563      0.08704      0.04094      0.67959      0.08875      
50500   0.74363    0.04153    0.06586    0.03190      0.59570      0.08639      0.04097      0.67983      0.08836      
50600   0.74363    0.04154    0.06586    0.03193      0.59567      0.08632      0.04100      0.67972      0.08808      
50700   0.74367    0.04155    0.06586    0.03195      0.59562      0.08682      0.04102      0.67979      0.08808      
50800   0.74366    0.04155    0.06586    0.03184      0.59573      0.08674      0.04092      0.67985      0.08815      
50900   0.74365    0.04155    0.06585    0.03182      0.59574      0.08688      0.04086      0.67983      0.08855      
51000   0.74359    0.04154    0.06584    0.03195      0.59561      0.08646      0.04098      0.67968      0.08808      
51100   0.74363    0.04157    0.06584    0.03199      0.59556      0.08657      0.04104      0.67965      0.08776      
51200   0.74365    0.04158    0.06584    0.03194      0.59557      0.08713      0.04115      0.67957      0.08818      
51300   0.74357    0.04157    0.06581    0.03179      0.59578      0.08612      0.04087      0.67976      0.08708      
51400   0.74351    0.04151    0.06579    0.03186      0.59571      0.08635      0.04098      0.67968      0.08761      
51500   0.74352    0.04153    0.06580    0.03162      0.59583      0.08743      0.04063      0.67982      0.08920      
51600   0.74345    0.04150    0.06579    0.03181      0.59569      0.08645      0.04093      0.67957      0.08759      
51700   0.74345    0.04149    0.06579    0.03170      0.59575      0.08717      0.04073      0.67988      0.08841      
51800   0.74339    0.04148    0.06578    0.03193      0.59550      0.08703      0.04099      0.67949      0.08884      
51900   0.74341    0.04145    0.06576    0.03185      0.59574      0.08608      0.04083      0.67972      0.08731      
52000   0.74329    0.04140    0.06576    0.03180      0.59565      0.08688      0.04083      0.67965      0.08873      
52100   0.74333    0.04139    0.06574    0.03179      0.59578      0.08621      0.04086      0.67964      0.08756      
52200   0.74333    0.04141    0.06575    0.03193      0.59562      0.08623      0.04103      0.67947      0.08770      
52300   0.74330    0.04138    0.06573    0.03172      0.59581      0.08658      0.04077      0.67975      0.08855      
52400   0.74330    0.04140    0.06573    0.03181      0.59569      0.08673      0.04081      0.67965      0.08847      
52500   0.74331    0.04141    0.06573    0.03190      0.59556      0.08701      0.04092      0.67947      0.08906      
52600   0.74329    0.04140    0.06572    0.03192      0.59559      0.08660      0.04108      0.67941      0.08849      
52700   0.74326    0.04137    0.06570    0.03180      0.59566      0.08720      0.04088      0.67960      0.08934      
52800   0.74312    0.04133    0.06568    0.03184      0.59565      0.08622      0.04098      0.67961      0.08807      
52900   0.74316    0.04135    0.06569    0.03195      0.59559      0.08575      0.04119      0.67951      0.08752      
53000   0.74317    0.04137    0.06570    0.03188      0.59555      0.08678      0.04093      0.67949      0.08933      
53100   0.74312    0.04133    0.06571    0.03188      0.59566      0.08556      0.04099      0.67967      0.08682      
53200   0.74313    0.04133    0.06570    0.03185      0.59561      0.08633      0.04094      0.67955      0.08815      
53300   0.74307    0.04132    0.06569    0.03181      0.59560      0.08641      0.04092      0.67973      0.08830      
53400   0.74312    0.04130    0.06569    0.03195      0.59546      0.08718      0.04101      0.67951      0.09021      
53500   0.74305    0.04130    0.06569    0.03178      0.59567      0.08611      0.04087      0.67971      0.08784      
53600   0.74306    0.04130    0.06569    0.03172      0.59567      0.08672      0.04074      0.67969      0.08912      
53700   0.74307    0.04129    0.06569    0.03171      0.59577      0.08619      0.04080      0.67978      0.08793      
53800   0.74304    0.04129    0.06568    0.03188      0.59552      0.08666      0.04106      0.67951      0.08855      
53900   0.74299    0.04128    0.06568    0.03190      0.59553      0.08601      0.04101      0.67959      0.08796      
54000   0.74296    0.04128    0.06568    0.03190      0.59544      0.08654      0.04103      0.67926      0.08870      
54100   0.74295    0.04126    0.06567    0.03189      0.59556      0.08579      0.04102      0.67966      0.08745      
54200   0.74293    0.04124    0.06566    0.03181      0.59560      0.08613      0.04086      0.67959      0.08798      
54300   0.74285    0.04120    0.06565    0.03192      0.59555      0.08536      0.04107      0.67955      0.08692      
54400   0.74281    0.04120    0.06565    0.03189      0.59537      0.08714      0.04100      0.67929      0.08954      
54500   0.74275    0.04118    0.06563    0.03181      0.59562      0.08501      0.04097      0.67960      0.08629      
54600   0.74278    0.04119    0.06563    0.03182      0.59554      0.08596      0.04100      0.67949      0.08775      
54700   0.74276    0.04119    0.06563    0.03171      0.59560      0.08633      0.04075      0.67965      0.08855      
54800   0.74281    0.04122    0.06564    0.03197      0.59536      0.08631      0.04114      0.67923      0.08829      
54900   0.74280    0.04122    0.06563    0.03194      0.59539      0.08622      0.04097      0.67934      0.08847      
55000   0.74277    0.04123    0.06562    0.03199      0.59531      0.08624      0.04109      0.67918      0.08793      
55100   0.74279    0.04123    0.06561    0.03181      0.59540      0.08735      0.04084      0.67936      0.08986      
55200   0.74273    0.04122    0.06561    0.03178      0.59549      0.08646      0.04086      0.67941      0.08858      
55300   0.74272    0.04121    0.06560    0.03186      0.59549      0.08554      0.04097      0.67936      0.08718      
55400   0.74265    0.04122    0.06561    0.03180      0.59539      0.08640      0.04086      0.67933      0.08861      
55500   0.74264    0.04121    0.06560    0.03186      0.59533      0.08634      0.04091      0.67929      0.08841      
55600   0.74258    0.04117    0.06558    0.03190      0.59528      0.08647      0.04104      0.67915      0.08823      
55700   0.74256    0.04114    0.06556    0.03187      0.59530      0.08687      0.04092      0.67919      0.08852      
55800   0.74256    0.04114    0.06556    0.03168      0.59565      0.08527      0.04074      0.67957      0.08622      
55900   0.74254    0.04114    0.06556    0.03186      0.59536      0.08612      0.04092      0.67924      0.08736      
56000   0.74248    0.04109    0.06552    0.03189      0.59540      0.08577      0.04095      0.67927      0.08701      
56100   0.74242    0.04105    0.06551    0.03192      0.59540      0.08542      0.04104      0.67932      0.08645      
56200   0.74243    0.04104    0.06551    0.03183      0.59532      0.08724      0.04084      0.67933      0.08949      
56300   0.74243    0.04105    0.06551    0.03199      0.59526      0.08629      0.04106      0.67917      0.08806      
56400   0.74240    0.04104    0.06549    0.03185      0.59546      0.08561      0.04097      0.67949      0.08642      
56500   0.74233    0.04102    0.06548    0.03184      0.59536      0.08627      0.04096      0.67937      0.08805      
56600   0.74232    0.04103    0.06547    0.03181      0.59537      0.08631      0.04086      0.67939      0.08804      
56700   0.74231    0.04104    0.06548    0.03188      0.59530      0.08601      0.04098      0.67935      0.08802      
56800   0.74228    0.04104    0.06548    0.03186      0.59519      0.08719      0.04089      0.67922      0.08952      
56900   0.74226    0.04102    0.06547    0.03178      0.59525      0.08735      0.04087      0.67929      0.09007      
57000   0.74222    0.04102    0.06547    0.03182      0.59526      0.08643      0.04100      0.67922      0.08831      
57100   0.74219    0.04100    0.06546    0.03191      0.59525      0.08572      0.04104      0.67930      0.08758      
57200   0.74217    0.04101    0.06546    0.03192      0.59514      0.08638      0.04108      0.67914      0.08843      
57300   0.74222    0.04101    0.06546    0.03169      0.59547      0.08596      0.04072      0.67951      0.08774      
57400   0.74217    0.04103    0.06545    0.03190      0.59518      0.08602      0.04105      0.67920      0.08851      
57500   0.74214    0.04101    0.06545    0.03188      0.59518      0.08629      0.04102      0.67918      0.08823      
57600   0.74215    0.04100    0.06543    0.03186      0.59517      0.08695      0.04087      0.67914      0.08983      
57700   0.74212    0.04099    0.06543    0.03194      0.59523      0.08533      0.04108      0.67913      0.08760      
57800   0.74206    0.04096    0.06542    0.03178      0.59524      0.08647      0.04083      0.67920      0.08909      
57900   0.74204    0.04095    0.06540    0.03184      0.59519      0.08649      0.04086      0.67915      0.08961      
58000   0.74203    0.04097    0.06540    0.03185      0.59514      0.08675      0.04102      0.67907      0.08937      
58100   0.74200    0.04092    0.06539    0.03191      0.59514      0.08641      0.04112      0.67900      0.08849      
58200   0.74198    0.04092    0.06538    0.03179      0.59524      0.08640      0.04089      0.67915      0.08861      
58300   0.74198    0.04089    0.06536    0.03185      0.59528      0.08599      0.04101      0.67923      0.08831      
58400   0.74196    0.04089    0.06537    0.03178      0.59533      0.08602      0.04087      0.67922      0.08817      
58500   0.74191    0.04086    0.06537    0.03174      0.59530      0.08648      0.04081      0.67912      0.08891      
58600   0.74187    0.04085    0.06535    0.03186      0.59521      0.08605      0.04102      0.67900      0.08824      
58700   0.74183    0.04085    0.06535    0.03185      0.59513      0.08648      0.04103      0.67887      0.08868      
58800   0.74180    0.04079    0.06533    0.03180      0.59524      0.08638      0.04086      0.67906      0.08853      
58900   0.74182    0.04081    0.06534    0.03187      0.59528      0.08518      0.04111      0.67911      0.08672      
59000   0.74181    0.04080    0.06531    0.03193      0.59505      0.08708      0.04109      0.67890      0.08943      
59100   0.74182    0.04080    0.06532    0.03192      0.59510      0.08676      0.04110      0.67891      0.08871      
59200   0.74178    0.04080    0.06531    0.03185      0.59514      0.08679      0.04096      0.67878      0.08913      
59300   0.74172    0.04080    0.06531    0.03187      0.59514      0.08609      0.04097      0.67888      0.08775      
59400   0.74168    0.04079    0.06529    0.03181      0.59507      0.08721      0.04089      0.67872      0.08979      
59500   0.74169    0.04079    0.06530    0.03175      0.59524      0.08620      0.04080      0.67900      0.08798      
59600   0.74164    0.04077    0.06530    0.03193      0.59503      0.08627      0.04107      0.67888      0.08838      
59700   0.74162    0.04076    0.06529    0.03186      0.59513      0.08573      0.04092      0.67885      0.08782      
59800   0.74162    0.04074    0.06528    0.03179      0.59510      0.08704      0.04086      0.67887      0.08925      
59900   0.74161    0.04076    0.06527    0.03177      0.59516      0.08646      0.04087      0.67897      0.08842      
60000   0.74157    0.04073    0.06526    0.03186      0.59504      0.08674      0.04093      0.67883      0.08922      
60100   0.74158    0.04074    0.06526    0.03190      0.59508      0.08599      0.04099      0.67890      0.08867      
60200   0.74157    0.04076    0.06526    0.03189      0.59495      0.08703      0.04098      0.67878      0.09022      
60300   0.74159    0.04077    0.06526    0.03186      0.59509      0.08605      0.04090      0.67891      0.08857      
60400   0.74160    0.04076    0.06525    0.03176      0.59519      0.08641      0.04084      0.67888      0.08848      
60500   0.74159    0.04076    0.06525    0.03183      0.59507      0.08682      0.04094      0.67877      0.08927      
60600   0.74156    0.04076    0.06525    0.03183      0.59515      0.08581      0.04093      0.67889      0.08735      
60700   0.74151    0.04074    0.06525    0.03184      0.59506      0.08618      0.04094      0.67883      0.08822      
60800   0.74152    0.04071    0.06524    0.03182      0.59512      0.08631      0.04091      0.67887      0.08834      
60900   0.74151    0.04072    0.06524    0.03176      0.59518      0.08618      0.04092      0.67893      0.08781      
61000   0.74150    0.04073    0.06524    0.03177      0.59524      0.08523      0.04087      0.67898      0.08663      
61100   0.74151    0.04068    0.06522    0.03180      0.59514      0.08656      0.04093      0.67899      0.08851      
61200   0.74147    0.04069    0.06521    0.03173      0.59519      0.08650      0.04083      0.67900      0.08841      
61300   0.74145    0.04071    0.06521    0.03173      0.59519      0.08611      0.04084      0.67897      0.08818      
61400   0.74146    0.04071    0.06521    0.03183      0.59510      0.08616      0.04094      0.67876      0.08778      
61500   0.74144    0.04071    0.06521    0.03173      0.59515      0.08652      0.04069      0.67875      0.08880      
61600   0.74138    0.04068    0.06520    0.03182      0.59494      0.08740      0.04086      0.67862      0.09034      
61700   0.74134    0.04067    0.06520    0.03180      0.59508      0.08595      0.04084      0.67881      0.08735      
61800   0.74132    0.04067    0.06518    0.03170      0.59521      0.08557      0.04077      0.67902      0.08799      
61900   0.74131    0.04066    0.06518    0.03182      0.59508      0.08572      0.04091      0.67885      0.08782      
62000   0.74130    0.04063    0.06517    0.03183      0.59500      0.08669      0.04089      0.67872      0.08897      
62100   0.74130    0.04064    0.06518    0.03199      0.59486      0.08633      0.04105      0.67860      0.08768      
62200   0.74134    0.04067    0.06517    0.03182      0.59500      0.08678      0.04080      0.67883      0.08879      
62300   0.74128    0.04067    0.06518    0.03186      0.59497      0.08589      0.04085      0.67876      0.08765      
62400   0.74131    0.04070    0.06519    0.03176      0.59506      0.08610      0.04087      0.67885      0.08823      
62500   0.74128    0.04069    0.06517    0.03168      0.59509      0.08648      0.04062      0.67887      0.08896      
62600   0.74125    0.04069    0.06516    0.03179      0.59501      0.08602      0.04071      0.67872      0.08814      
62700   0.74120    0.04066    0.06515    0.03187      0.59492      0.08596      0.04097      0.67856      0.08774      
[...]
89300   0.73632    0.03882    0.06369    0.03152      0.59377      0.08520      0.04050      0.67745      0.08682      
89400   0.73627    0.03882    0.06369    0.03164      0.59356      0.08562      0.04059      0.67726      0.08765      
89500   0.73624    0.03879    0.06368    0.03166      0.59358      0.08524      0.04064      0.67730      0.08685      
89600   0.73624    0.03877    0.06368    0.03164      0.59360      0.08546      0.04061      0.67724      0.08654      
89700   0.73623    0.03877    0.06366    0.03154      0.59369      0.08568      0.04039      0.67741      0.08741      
89800   0.73619    0.03877    0.06366    0.03172      0.59355      0.08499      0.04072      0.67723      0.08612      
89900   0.73622    0.03877    0.06365    0.03164      0.59361      0.08539      0.04063      0.67732      0.08702      
90000   0.73623    0.03879    0.06365    0.03166      0.59364      0.08491      0.04064      0.67739      0.08622      
90100   0.73618    0.03879    0.06365    0.03173      0.59349      0.08524      0.04068      0.67735      0.08665      
90200   0.73619    0.03879    0.06365    0.03162      0.59365      0.08487      0.04057      0.67750      0.08584      
90300   0.73621    0.03879    0.06365    0.03162      0.59366      0.08493      0.04054      0.67743      0.08600      
90400   0.73620    0.03877    0.06363    0.03159      0.59364      0.08572      0.04058      0.67753      0.08714      
90500   0.73620    0.03876    0.06362    0.03172      0.59364      0.08454      0.04069      0.67752      0.08588      
90600   0.73618    0.03876    0.06361    0.03176      0.59353      0.08520      0.04078      0.67732      0.08679      
90700   0.73613    0.03873    0.06360    0.03170      0.59355      0.08538      0.04071      0.67738      0.08681      
90800   0.73611    0.03873    0.06361    0.03165      0.59358      0.08539      0.04068      0.67736      0.08693      
90900   0.73608    0.03872    0.06360    0.03163      0.59364      0.08483      0.04063      0.67745      0.08632      
91000   0.73605    0.03870    0.06360    0.03167      0.59356      0.08523      0.04067      0.67723      0.08694      
91100   0.73606    0.03871    0.06359    0.03157      0.59371      0.08476      0.04057      0.67753      0.08656      
91200   0.73603    0.03871    0.06359    0.03166      0.59362      0.08454      0.04055      0.67732      0.08629      
91300   0.73600    0.03870    0.06357    0.03156      0.59361      0.08543      0.04046      0.67745      0.08708      
91400   0.73601    0.03870    0.06357    0.03162      0.59362      0.08504      0.04057      0.67748      0.08663      
91500   0.73595    0.03868    0.06355    0.03157      0.59361      0.08539      0.04052      0.67728      0.08708      
91600   0.73593    0.03865    0.06354    0.03168      0.59353      0.08527      0.04061      0.67715      0.08712      
91700   0.73591    0.03866    0.06354    0.03162      0.59356      0.08529      0.04061      0.67736      0.08686      
91800   0.73591    0.03865    0.06354    0.03177      0.59340      0.08551      0.04073      0.67707      0.08721      
91900   0.73589    0.03866    0.06353    0.03163      0.59351      0.08559      0.04059      0.67723      0.08737      
92000   0.73586    0.03863    0.06353    0.03165      0.59346      0.08588      0.04056      0.67719      0.08806      
92100   0.73584    0.03864    0.06352    0.03160      0.59358      0.08501      0.04060      0.67737      0.08652      
92200   0.73584    0.03864    0.06351    0.03162      0.59348      0.08585      0.04056      0.67725      0.08775      
92300   0.73582    0.03865    0.06352    0.03163      0.59357      0.08451      0.04060      0.67730      0.08588      
92400   0.73577    0.03862    0.06351    0.03156      0.59359      0.08488      0.04054      0.67742      0.08645      
92500   0.73577    0.03863    0.06351    0.03157      0.59356      0.08508      0.04052      0.67736      0.08657      
92600   0.73575    0.03861    0.06350    0.03155      0.59359      0.08498      0.04050      0.67735      0.08647      
92700   0.73572    0.03862    0.06350    0.03164      0.59341      0.08559      0.04063      0.67714      0.08738      
92800   0.73572    0.03861    0.06349    0.03163      0.59345      0.08543      0.04057      0.67722      0.08732      
92900   0.73572    0.03862    0.06349    0.03159      0.59349      0.08535      0.04054      0.67720      0.08772      
93000   0.73572    0.03862    0.06348    0.03155      0.59355      0.08507      0.04047      0.67733      0.08680      
93100   0.73570    0.03861    0.06348    0.03159      0.59349      0.08537      0.04053      0.67732      0.08771      
93200   0.73567    0.03860    0.06348    0.03152      0.59360      0.08475      0.04052      0.67739      0.08642      
93300   0.73563    0.03859    0.06347    0.03154      0.59353      0.08493      0.04050      0.67736      0.08687      
93400   0.73566    0.03860    0.06346    0.03165      0.59341      0.08534      0.04056      0.67711      0.08730      
93500   0.73563    0.03860    0.06345    0.03159      0.59350      0.08485      0.04053      0.67735      0.08673      
93600   0.73560    0.03859    0.06345    0.03157      0.59348      0.08505      0.04049      0.67725      0.08690      
93700   0.73554    0.03858    0.06344    0.03159      0.59345      0.08489      0.04058      0.67716      0.08665      
93800   0.73554    0.03856    0.06343    0.03164      0.59346      0.08458      0.04073      0.67723      0.08646      
93900   0.73551    0.03856    0.06342    0.03161      0.59337      0.08555      0.04060      0.67703      0.08816      
94000   0.73553    0.03857    0.06340    0.03166      0.59332      0.08573      0.04066      0.67705      0.08816      
94100   0.73551    0.03855    0.06339    0.03174      0.59338      0.08439      0.04078      0.67706      0.08602      
94200   0.73546    0.03853    0.06339    0.03150      0.59355      0.08494      0.04047      0.67734      0.08704      
94300   0.73545    0.03854    0.06340    0.03159      0.59336      0.08570      0.04065      0.67706      0.08822      
94400   0.73542    0.03853    0.06339    0.03167      0.59337      0.08452      0.04068      0.67705      0.08613      
94500   0.73540    0.03852    0.06338    0.03173      0.59326      0.08502      0.04076      0.67692      0.08764      
94600   0.73538    0.03851    0.06338    0.03153      0.59339      0.08561      0.04057      0.67716      0.08807      
94700   0.73535    0.03850    0.06337    0.03148      0.59358      0.08427      0.04050      0.67740      0.08663      
94800   0.73532    0.03847    0.06335    0.03160      0.59340      0.08503      0.04056      0.67718      0.08751      
94900   0.73530    0.03846    0.06335    0.03164      0.59336      0.08488      0.04064      0.67719      0.08701      
95000   0.73528    0.03845    0.06334    0.03151      0.59350      0.08487      0.04048      0.67728      0.08697      
95100   0.73525    0.03844    0.06333    0.03157      0.59343      0.08466      0.04054      0.67720      0.08660      
95200   0.73526    0.03845    0.06334    0.03164      0.59333      0.08507      0.04066      0.67705      0.08720      
95300   0.73526    0.03845    0.06334    0.03155      0.59348      0.08440      0.04054      0.67731      0.08612      
95400   0.73523    0.03844    0.06334    0.03160      0.59340      0.08450      0.04056      0.67715      0.08604      
95500   0.73523    0.03846    0.06334    0.03163      0.59327      0.08523      0.04063      0.67704      0.08737      
95600   0.73522    0.03843    0.06333    0.03161      0.59339      0.08463      0.04060      0.67708      0.08667      
95700   0.73521    0.03844    0.06333    0.03160      0.59336      0.08474      0.04061      0.67715      0.08678      
95800   0.73517    0.03842    0.06331    0.03155      0.59340      0.08485      0.04054      0.67714      0.08675      
95900   0.73513    0.03839    0.06330    0.03158      0.59336      0.08499      0.04059      0.67725      0.08703      
96000   0.73511    0.03839    0.06330    0.03157      0.59334      0.08505      0.04059      0.67716      0.08732      
96100   0.73507    0.03836    0.06329    0.03163      0.59332      0.08461      0.04066      0.67716      0.08647      
96200   0.73506    0.03836    0.06329    0.03162      0.59336      0.08438      0.04063      0.67716      0.08597      
96300   0.73505    0.03837    0.06329    0.03158      0.59336      0.08444      0.04060      0.67722      0.08602      
96400   0.73504    0.03837    0.06328    0.03160      0.59334      0.08452      0.04059      0.67726      0.08655      
96500   0.73504    0.03835    0.06329    0.03164      0.59331      0.08456      0.04069      0.67718      0.08599      
96600   0.73502    0.03834    0.06328    0.03163      0.59327      0.08501      0.04066      0.67719      0.08682      
96700   0.73498    0.03832    0.06327    0.03166      0.59320      0.08531      0.04070      0.67707      0.08727      
96800   0.73496    0.03830    0.06326    0.03168      0.59327      0.08456      0.04073      0.67724      0.08598      
96900   0.73494    0.03830    0.06326    0.03169      0.59326      0.08437      0.04073      0.67724      0.08619      
97000   0.73494    0.03829    0.06325    0.03159      0.59330      0.08516      0.04063      0.67717      0.08660      
97100   0.73495    0.03830    0.06325    0.03157      0.59335      0.08479      0.04060      0.67730      0.08660      
97200   0.73492    0.03830    0.06324    0.03175      0.59320      0.08439      0.04076      0.67704      0.08582      
97300   0.73493    0.03831    0.06323    0.03169      0.59322      0.08476      0.04075      0.67711      0.08682      
97400   0.73495    0.03832    0.06323    0.03175      0.59314      0.08502      0.04075      0.67699      0.08694      
97500   0.73491    0.03830    0.06322    0.03164      0.59326      0.08490      0.04063      0.67710      0.08651      
97600   0.73492    0.03831    0.06322    0.03163      0.59325      0.08499      0.04061      0.67716      0.08673      
97700   0.73487    0.03830    0.06320    0.03162      0.59322      0.08527      0.04062      0.67709      0.08716      
97800   0.73491    0.03831    0.06321    0.03168      0.59321      0.08492      0.04071      0.67709      0.08659      
97900   0.73487    0.03831    0.06321    0.03161      0.59321      0.08526      0.04065      0.67710      0.08706      
98000   0.73485    0.03829    0.06320    0.03160      0.59325      0.08506      0.04065      0.67722      0.08725      
98100   0.73479    0.03827    0.06319    0.03152      0.59328      0.08515      0.04055      0.67723      0.08732      
98200   0.73476    0.03825    0.06318    0.03154      0.59328      0.08496      0.04058      0.67721      0.08689      
98300   0.73478    0.03826    0.06319    0.03144      0.59340      0.08480      0.04045      0.67731      0.08670      
98400   0.73476    0.03826    0.06318    0.03157      0.59325      0.08495      0.04057      0.67716      0.08713      
98500   0.73476    0.03827    0.06318    0.03168      0.59318      0.08445      0.04071      0.67701      0.08633      
98600   0.73475    0.03826    0.06318    0.03165      0.59318      0.08483      0.04068      0.67703      0.08698      
98700   0.73478    0.03829    0.06318    0.03161      0.59319      0.08517      0.04065      0.67705      0.08768      
98800   0.73477    0.03829    0.06317    0.03159      0.59327      0.08438      0.04064      0.67713      0.08611      
98900   0.73478    0.03830    0.06317    0.03156      0.59328      0.08475      0.04059      0.67722      0.08672      
99000   0.73471    0.03826    0.06316    0.03156      0.59328      0.08449      0.04061      0.67706      0.08616      
99100   0.73470    0.03825    0.06315    0.03148      0.59335      0.08469      0.04048      0.67722      0.08664      
99200   0.73471    0.03825    0.06315    0.03156      0.59335      0.08399      0.04062      0.67719      0.08561      
99300   0.73468    0.03825    0.06315    0.03164      0.59323      0.08414      0.04068      0.67712      0.08627      
99400   0.73468    0.03825    0.06314    0.03151      0.59331      0.08467      0.04054      0.67718      0.08678      
99500   0.73466    0.03824    0.06314    0.03149      0.59333      0.08461      0.04052      0.67724      0.08613      
99600   0.73460    0.03823    0.06314    0.03146      0.59329      0.08485      0.04044      0.67724      0.08710      
99700   0.73460    0.03822    0.06313    0.03157      0.59327      0.08412      0.04059      0.67718      0.08547      
99800   0.73456    0.03822    0.06312    0.03161      0.59307      0.08543      0.04061      0.67691      0.08772      
99900   0.73455    0.03821    0.06311    0.03154      0.59323      0.08454      0.04059      0.67718      0.08638      
100000  0.73450    0.03820    0.06311    0.03151      0.59323      0.08456      0.04054      0.67708      0.08645      
100100  0.73453    0.03822    0.06312    0.03159      0.59321      0.08399      0.04061      0.67712      0.08550      
100200  0.73450    0.03821    0.06311    0.03155      0.59311      0.08510      0.04056      0.67693      0.08745      
100300  0.73445    0.03820    0.06311    0.03153      0.59317      0.08432      0.04059      0.67701      0.08615      
100400  0.73446    0.03820    0.06310    0.03155      0.59323      0.08379      0.04056      0.67710      0.08511      
100500  0.73445    0.03819    0.06311    0.03163      0.59310      0.08423      0.04061      0.67690      0.08592      
100600  0.73445    0.03819    0.06310    0.03151      0.59318      0.08468      0.04051      0.67704      0.08665      
100700  0.73443    0.03820    0.06310    0.03152      0.59319      0.08411      0.04058      0.67714      0.08597      
100800  0.73440    0.03818    0.06310    0.03156      0.59310      0.08460      0.04060      0.67701      0.08646      
100900  0.73439    0.03817    0.06308    0.03154      0.59317      0.08426      0.04060      0.67698      0.08590      
101000  0.73436    0.03816    0.06308    0.03152      0.59311      0.08484      0.04056      0.67692      0.08690      
101100  0.73434    0.03814    0.06307    0.03152      0.59321      0.08404      0.04052      0.67700      0.08575      
101200  0.73434    0.03815    0.06308    0.03164      0.59302      0.08454      0.04064      0.67673      0.08664      
101300  0.73433    0.03815    0.06307    0.03151      0.59315      0.08443      0.04053      0.67693      0.08647      
101400  0.73430    0.03815    0.06307    0.03157      0.59304      0.08477      0.04054      0.67679      0.08663      
101500  0.73430    0.03814    0.06306    0.03160      0.59305      0.08451      0.04065      0.67685      0.08622      
101600  0.73426    0.03811    0.06305    0.03153      0.59309      0.08484      0.04052      0.67690      0.08698      
101700  0.73424    0.03810    0.06305    0.03161      0.59303      0.08444      0.04063      0.67687      0.08636      
101800  0.73423    0.03810    0.06304    0.03142      0.59319      0.08484      0.04045      0.67701      0.08701      
101900  0.73423    0.03810    0.06304    0.03162      0.59303      0.08439      0.04059      0.67698      0.08655      
102000  0.73420    0.03809    0.06303    0.03153      0.59304      0.08506      0.04048      0.67686      0.08726      
102100  0.73420    0.03809    0.06302    0.03165      0.59299      0.08448      0.04066      0.67689      0.08664      
102200  0.73419    0.03808    0.06301    0.03149      0.59316      0.08457      0.04047      0.67700      0.08662      
102300  0.73418    0.03807    0.06300    0.03156      0.59310      0.08457      0.04057      0.67687      0.08644      
102400  0.73414    0.03804    0.06300    0.03162      0.59306      0.08418      0.04064      0.67676      0.08633      
102500  0.73411    0.03804    0.06299    0.03155      0.59308      0.08461      0.04052      0.67688      0.08683      
102600  0.73408    0.03801    0.06297    0.03148      0.59315      0.08465      0.04043      0.67691      0.08700      
102700  0.73405    0.03799    0.06296    0.03156      0.59312      0.08417      0.04054      0.67694      0.08626      
102800  0.73406    0.03802    0.06295    0.03164      0.59301      0.08443      0.04065      0.67678      0.08664      
102900  0.73406    0.03801    0.06294    0.03159      0.59303      0.08480      0.04058      0.67673      0.08707      
103000  0.73404    0.03800    0.06294    0.03159      0.59314      0.08377      0.04059      0.67688      0.08531      
103100  0.73403    0.03801    0.06294    0.03155      0.59308      0.08450      0.04056      0.67684      0.08623      
103200  0.73402    0.03798    0.06292    0.03159      0.59304      0.08484      0.04059      0.67673      0.08693      
103300  0.73396    0.03796    0.06292    0.03169      0.59296      0.08425      0.04070      0.67670      0.08623      
103400  0.73393    0.03794    0.06291    0.03161      0.59304      0.08437      0.04060      0.67680      0.08650      
103500  0.73390    0.03792    0.06290    0.03160      0.59308      0.08404      0.04058      0.67690      0.08614      
103600  0.73390    0.03792    0.06290    0.03154      0.59314      0.08394      0.04054      0.67696      0.08589      
103700  0.73388    0.03790    0.06289    0.03159      0.59303      0.08465      0.04054      0.67690      0.08703      
103800  0.73383    0.03788    0.06289    0.03153      0.59313      0.08406      0.04053      0.67703      0.08589      
103900  0.73379    0.03785    0.06287    0.03156      0.59306      0.08455      0.04054      0.67689      0.08650      
104000  0.73378    0.03785    0.06288    0.03150      0.59308      0.08473      0.04049      0.67696      0.08720      
104100  0.73379    0.03786    0.06287    0.03154      0.59309      0.08417      0.04054      0.67701      0.08623      
104200  0.73376    0.03784    0.06286    0.03150      0.59310      0.08454      0.04047      0.67695      0.08718      
104300  0.73374    0.03783    0.06284    0.03164      0.59306      0.08377      0.04061      0.67686      0.08561      
104400  0.73373    0.03786    0.06285    0.03154      0.59302      0.08458      0.04056      0.67688      0.08680      
104500  0.73373    0.03785    0.06284    0.03159      0.59298      0.08466      0.04061      0.67673      0.08723      
104600  0.73369    0.03783    0.06283    0.03159      0.59297      0.08460      0.04057      0.67679      0.08751      
104700  0.73369    0.03784    0.06283    0.03156      0.59309      0.08368      0.04052      0.67697      0.08576      
104800  0.73366    0.03781    0.06282    0.03155      0.59303      0.08439      0.04061      0.67687      0.08650      
104900  0.73365    0.03779    0.06281    0.03154      0.59303      0.08467      0.04056      0.67685      0.08669      
105000  0.73362    0.03780    0.06281    0.03151      0.59302      0.08473      0.04050      0.67690      0.08700      
105100  0.73360    0.03778    0.06280    0.03154      0.59303      0.08449      0.04049      0.67692      0.08673      
105200  0.73361    0.03780    0.06280    0.03155      0.59304      0.08413      0.04051      0.67692      0.08596      
105300  0.73359    0.03779    0.06280    0.03169      0.59294      0.08365      0.04067      0.67674      0.08559      
105400  0.73357    0.03779    0.06280    0.03167      0.59293      0.08384      0.04067      0.67674      0.08571      
105500  0.73353    0.03779    0.06279    0.03168      0.59285      0.08421      0.04070      0.67669      0.08683      
105600  0.73351    0.03776    0.06279    0.03163      0.59284      0.08486      0.04063      0.67671      0.08721      
slurmstepd: error: *** STEP 6512208.0 ON gpu17 CANCELLED AT 2025-04-02T18:36:22 DUE TO TIME LIMIT ***
slurmstepd: error: *** JOB 6512208 ON gpu17 CANCELLED AT 2025-04-02T18:36:22 DUE TO TIME LIMIT ***
srun: Job step aborted: Waiting up to 32 seconds for job step to finish.
