
***************************************************************
*                 Welcome to use GPUMD                        *
*    (Graphics Processing Units Molecular Dynamics)           *
*              Master version after 3.9.5                     *
*              This is the nep executable                     *
***************************************************************


---------------------------------------------------------------
GPU information:
---------------------------------------------------------------

number of GPUs = 1
Device id:                   0
    Device name:             NVIDIA A100-SXM4-80GB
    Compute capability:      8.0
    Amount of global memory: 79.2517 GB
    Number of SMs:           108

---------------------------------------------------------------
Started running nep.
---------------------------------------------------------------


---------------------------------------------------------------
Started reading nep.in.
---------------------------------------------------------------

Input or default parameters:
    (default) model_type = potential.
    (default) calculation mode = train.
    (default) use NEP version 4.
    (input)   number of atom types = 1.
        (default) type 0 (C with Z = 6) has force weight of 1.
    (default) will not add the ZBL potential.
    (input)   radial cutoff = 4.2 A.
    (input)   angular cutoff = 3.7 A.
    (default) use global cutoff for NEP.
    (default) use global cutoff for ZBL.
    (input)   n_max_radial = 10.
    (input)   n_max_angular = 15.
    (input)   basis_size_radial = 10.
    (input)   basis_size_angular = 15.
    (input)   l_max_3body = 4.
    (input)   l_max_4body = 2.
    (input)   l_max_5body = 1.
    (input)   number of neurons = 100.
    (input)   lambda_1 = 0.05.
    (input)   lambda_2 = 0.05.
    (input)   lambda_e = 1.
    (input)   lambda_f = 1.
    (input)   lambda_v = 0.1.
    (default) lambda_shear = 1.
    (default) force_delta = 0.
    (input)   batch size = 100000.
    (input)   population size = 50.
    (input)   maximum number of generations = 500000.
Some calculated parameters:
    number of radial descriptor components = 11.
    number of angular descriptor components = 96.
    total number of descriptor components = 107.
    NN architecture = 107-100-1.
    number of NN parameters to be optimized = 10901.
    number of descriptor parameters to be optimized = 377.
    total number of parameters to be optimized = 11278.

---------------------------------------------------------------
Finished reading nep.in.
---------------------------------------------------------------


---------------------------------------------------------------
Started reading train.xyz
---------------------------------------------------------------

Number of configurations = 6738.
Number of devices = 1
Number of batches = 1
Hello, I changed the batch_size from 100000 to 6738.

Batch 0:
Number of configurations = 6738.

---------------------------------------------------------------
Constructing train_set in device  0.
Total number of atoms = 379404.
Number of atoms in the largest configuration = 512.
Number of configurations having virial = 6018.
Radial descriptor with a cutoff of 4.2 A:
    Minimum number of neighbors for one atom = 0.
    Maximum number of neighbors for one atom = 98.
Angular descriptor with a cutoff of 3.7 A:
    Minimum number of neighbors for one atom = 0.
    Maximum number of neighbors for one atom = 56.
---------------------------------------------------------------


---------------------------------------------------------------
Started reading test.xyz
---------------------------------------------------------------

Number of configurations = 450.

---------------------------------------------------------------
Constructing test_set in device  0.
Total number of atoms = 28337.
Number of atoms in the largest configuration = 216.
Number of configurations having virial = 450.
Radial descriptor with a cutoff of 4.2 A:
    Minimum number of neighbors for one atom = 5.
    Maximum number of neighbors for one atom = 78.
Angular descriptor with a cutoff of 3.7 A:
    Minimum number of neighbors for one atom = 4.
    Maximum number of neighbors for one atom = 46.
---------------------------------------------------------------


---------------------------------------------------------------
Time used for initialization = 2.302611 s.
---------------------------------------------------------------


---------------------------------------------------------------
Started training.
---------------------------------------------------------------

Step    Total-Loss L1Reg-Loss L2Reg-Loss RMSE-E-Train RMSE-F-Train RMSE-V-Train RMSE-E-Test  RMSE-F-Test  RMSE-V-Test  
100     0.81196    0.06583    0.09039    0.03357      0.61224      0.09935      0.04230      0.69538      0.09718      
200     0.81187    0.06580    0.09034    0.03345      0.61240      0.09874      0.04266      0.69577      0.09564      
300     0.81152    0.06579    0.09030    0.03351      0.61232      0.09600      0.04262      0.69575      0.09138      
400     0.81173    0.06573    0.09021    0.03362      0.61267      0.09498      0.04249      0.69620      0.09071      
500     0.81169    0.06569    0.09016    0.03389      0.61212      0.09834      0.04283      0.69557      0.09441      
600     0.81177    0.06568    0.09014    0.03376      0.61264      0.09547      0.04281      0.69595      0.09133      
700     0.81136    0.06564    0.09011    0.03391      0.61197      0.09728      0.04300      0.69492      0.09348      
800     0.81134    0.06556    0.09008    0.03354      0.61242      0.09741      0.04258      0.69566      0.09392      
900     0.81121    0.06556    0.09007    0.03324      0.61248      0.09858      0.04219      0.69610      0.09600      
1000    0.81099    0.06548    0.09003    0.03396      0.61165      0.09869      0.04291      0.69508      0.09561      
1100    0.81119    0.06559    0.09007    0.03415      0.61179      0.09593      0.04335      0.69510      0.09093      
1200    0.81114    0.06560    0.09009    0.03351      0.61230      0.09649      0.04231      0.69591      0.09191      
1300    0.81100    0.06566    0.09012    0.03342      0.61213      0.09675      0.04239      0.69573      0.09250      
1400    0.81115    0.06567    0.09011    0.03353      0.61190      0.09950      0.04255      0.69542      0.09802      
1500    0.81079    0.06560    0.09003    0.03356      0.61187      0.09731      0.04240      0.69536      0.09338      
1600    0.81087    0.06554    0.08994    0.03380      0.61200      0.09600      0.04286      0.69561      0.08949      
1700    0.81088    0.06554    0.08993    0.03364      0.61203      0.09736      0.04246      0.69535      0.09446      
1800    0.81063    0.06543    0.08980    0.03327      0.61233      0.09796      0.04225      0.69599      0.09382      
1900    0.81058    0.06551    0.08983    0.03371      0.61176      0.09779      0.04264      0.69507      0.09341      
2000    0.81057    0.06538    0.08976    0.03361      0.61199      0.09825      0.04252      0.69547      0.09386      
2100    0.81037    0.06534    0.08970    0.03374      0.61160      0.09995      0.04289      0.69531      0.09590      
2200    0.81024    0.06536    0.08970    0.03346      0.61197      0.09753      0.04253      0.69516      0.09268      
2300    0.81005    0.06523    0.08962    0.03350      0.61201      0.09694      0.04237      0.69574      0.09123      
2400    0.80989    0.06517    0.08955    0.03368      0.61158      0.09917      0.04257      0.69502      0.09514      
2500    0.80982    0.06514    0.08948    0.03324      0.61211      0.09847      0.04203      0.69564      0.09461      
2600    0.80968    0.06504    0.08944    0.03369      0.61166      0.09845      0.04263      0.69540      0.09493      
2700    0.80972    0.06509    0.08940    0.03384      0.61149      0.09901      0.04271      0.69514      0.09650      
2800    0.80955    0.06508    0.08936    0.03360      0.61179      0.09719      0.04269      0.69539      0.09389      
2900    0.80938    0.06498    0.08931    0.03329      0.61203      0.09777      0.04223      0.69581      0.09464      
3000    0.80944    0.06496    0.08926    0.03395      0.61158      0.09692      0.04300      0.69520      0.09353      
3100    0.80932    0.06497    0.08926    0.03336      0.61172      0.10006      0.04231      0.69524      0.09701      
3200    0.80912    0.06496    0.08926    0.03377      0.61145      0.09693      0.04274      0.69495      0.09263      
3300    0.80922    0.06492    0.08920    0.03398      0.61135      0.09762      0.04293      0.69474      0.09305      
3400    0.80900    0.06485    0.08914    0.03369      0.61135      0.09968      0.04288      0.69470      0.09563      
3500    0.80899    0.06486    0.08915    0.03384      0.61140      0.09739      0.04265      0.69467      0.09424      
3600    0.80867    0.06481    0.08908    0.03355      0.61136      0.09876      0.04275      0.69493      0.09559      
3700    0.80860    0.06475    0.08905    0.03362      0.61107      0.10106      0.04265      0.69479      0.09940      
3800    0.80847    0.06469    0.08901    0.03365      0.61117      0.09963      0.04268      0.69459      0.09579      
3900    0.80845    0.06475    0.08905    0.03376      0.61115      0.09741      0.04253      0.69490      0.09502      
4000    0.80850    0.06464    0.08900    0.03354      0.61172      0.09614      0.04249      0.69537      0.09145      
4100    0.80848    0.06461    0.08897    0.03385      0.61107      0.09983      0.04282      0.69487      0.09443      
4200    0.80836    0.06461    0.08896    0.03380      0.61101      0.09977      0.04305      0.69481      0.09662      
4300    0.80824    0.06463    0.08896    0.03352      0.61144      0.09689      0.04254      0.69549      0.09233      
4400    0.80793    0.06459    0.08888    0.03365      0.61093      0.09884      0.04279      0.69471      0.09533      
4500    0.80781    0.06455    0.08887    0.03347      0.61123      0.09684      0.04247      0.69518      0.09367      
4600    0.80794    0.06456    0.08883    0.03393      0.61095      0.09670      0.04288      0.69453      0.09384      
4700    0.80765    0.06445    0.08880    0.03338      0.61121      0.09809      0.04236      0.69500      0.09400      
4800    0.80748    0.06437    0.08875    0.03379      0.61087      0.09696      0.04289      0.69457      0.09465      
4900    0.80751    0.06434    0.08868    0.03374      0.61088      0.09869      0.04271      0.69457      0.09703      
5000    0.80749    0.06433    0.08865    0.03357      0.61121      0.09728      0.04255      0.69480      0.09466      
5100    0.80723    0.06424    0.08857    0.03362      0.61114      0.09655      0.04266      0.69471      0.09253      
5200    0.80702    0.06411    0.08844    0.03339      0.61131      0.09779      0.04227      0.69490      0.09683      
5300    0.80691    0.06408    0.08838    0.03383      0.61098      0.09640      0.04300      0.69438      0.09460      
5400    0.80667    0.06401    0.08828    0.03375      0.61084      0.09795      0.04269      0.69386      0.09591      
5500    0.80658    0.06405    0.08824    0.03388      0.61076      0.09646      0.04288      0.69405      0.09493      
5600    0.80675    0.06403    0.08819    0.03417      0.61038      0.09989      0.04317      0.69384      0.09998      
5700    0.80648    0.06399    0.08822    0.03356      0.61115      0.09563      0.04264      0.69489      0.09289      
5800    0.80657    0.06401    0.08822    0.03351      0.61093      0.09891      0.04260      0.69440      0.09601      
5900    0.80625    0.06394    0.08823    0.03366      0.61057      0.09851      0.04258      0.69377      0.09906      
6000    0.80604    0.06389    0.08821    0.03383      0.61045      0.09657      0.04275      0.69381      0.09399      
6100    0.80598    0.06385    0.08815    0.03358      0.61070      0.09686      0.04257      0.69420      0.09600      
6200    0.80609    0.06375    0.08807    0.03373      0.61071      0.09835      0.04231      0.69457      0.09922      
6300    0.80584    0.06371    0.08805    0.03348      0.61076      0.09840      0.04234      0.69433      0.09761      
6400    0.80594    0.06375    0.08806    0.03339      0.61093      0.09814      0.04226      0.69491      0.10009      
6500    0.80566    0.06370    0.08799    0.03332      0.61088      0.09767      0.04218      0.69468      0.09764      
6600    0.80554    0.06364    0.08796    0.03326      0.61099      0.09690      0.04204      0.69482      0.09584      
6700    0.80564    0.06363    0.08793    0.03356      0.61084      0.09675      0.04228      0.69453      0.09446      
6800    0.80535    0.06366    0.08789    0.03390      0.61005      0.09844      0.04276      0.69360      0.09829      
6900    0.80541    0.06358    0.08781    0.03371      0.61069      0.09623      0.04242      0.69428      0.09342      
7000    0.80505    0.06354    0.08776    0.03331      0.61073      0.09711      0.04221      0.69438      0.09477      
7100    0.80510    0.06346    0.08769    0.03345      0.61079      0.09699      0.04242      0.69437      0.09469      
7200    0.80490    0.06343    0.08764    0.03339      0.61066      0.09781      0.04225      0.69424      0.09511      
7300    0.80499    0.06340    0.08761    0.03339      0.61083      0.09742      0.04234      0.69427      0.09435      
7400    0.80503    0.06341    0.08762    0.03388      0.61046      0.09665      0.04281      0.69367      0.09314      
7500    0.80478    0.06335    0.08757    0.03359      0.61055      0.09717      0.04241      0.69391      0.09556      
7600    0.80461    0.06327    0.08750    0.03368      0.61043      0.09725      0.04287      0.69355      0.09533      
7700    0.80460    0.06326    0.08745    0.03332      0.61082      0.09760      0.04231      0.69420      0.09646      
7800    0.80442    0.06317    0.08742    0.03357      0.61049      0.09766      0.04281      0.69410      0.09710      
7900    0.80432    0.06313    0.08732    0.03353      0.61046      0.09887      0.04272      0.69349      0.09805      
8000    0.80413    0.06310    0.08732    0.03355      0.61050      0.09642      0.04273      0.69352      0.09546      
8100    0.80415    0.06311    0.08729    0.03336      0.61072      0.09667      0.04242      0.69361      0.09721      
8200    0.80417    0.06315    0.08733    0.03327      0.61087      0.09548      0.04249      0.69412      0.09337      
8300    0.80416    0.06308    0.08727    0.03338      0.61080      0.09611      0.04267      0.69395      0.09575      
8400    0.80397    0.06303    0.08724    0.03373      0.61040      0.09579      0.04288      0.69371      0.09480      
8500    0.80365    0.06300    0.08721    0.03333      0.61051      0.09601      0.04244      0.69396      0.09607      
8600    0.80341    0.06296    0.08720    0.03318      0.61028      0.09781      0.04239      0.69336      0.09998      
8700    0.80336    0.06287    0.08715    0.03344      0.61006      0.09843      0.04255      0.69330      0.09968      
8800    0.80344    0.06291    0.08712    0.03347      0.61029      0.09641      0.04276      0.69350      0.09609      
8900    0.80346    0.06285    0.08704    0.03353      0.61042      0.09615      0.04260      0.69347      0.09523      
9000    0.80329    0.06285    0.08702    0.03350      0.61008      0.09838      0.04239      0.69318      0.09914      
9100    0.80347    0.06287    0.08704    0.03335      0.61063      0.09588      0.04226      0.69399      0.09705      
9200    0.80346    0.06287    0.08706    0.03349      0.61046      0.09581      0.04237      0.69371      0.09296      
9300    0.80327    0.06275    0.08697    0.03330      0.61055      0.09706      0.04224      0.69380      0.09448      
9400    0.80302    0.06275    0.08690    0.03301      0.61067      0.09702      0.04205      0.69354      0.09647      
9500    0.80299    0.06265    0.08685    0.03330      0.61033      0.09862      0.04236      0.69309      0.09723      
9600    0.80309    0.06268    0.08685    0.03333      0.61073      0.09509      0.04253      0.69385      0.09132      
9700    0.80277    0.06267    0.08682    0.03347      0.61023      0.09584      0.04245      0.69345      0.09468      
9800    0.80281    0.06266    0.08680    0.03354      0.60996      0.09857      0.04243      0.69303      0.09806      
9900    0.80277    0.06252    0.08671    0.03326      0.61044      0.09827      0.04238      0.69356      0.09687      
10000   0.80242    0.06249    0.08666    0.03302      0.61076      0.09488      0.04190      0.69362      0.09338      
10100   0.80217    0.06236    0.08655    0.03314      0.61060      0.09523      0.04217      0.69380      0.09403      
10200   0.80210    0.06240    0.08653    0.03329      0.61037      0.09516      0.04229      0.69355      0.09315      
10300   0.80188    0.06225    0.08642    0.03303      0.61047      0.09701      0.04191      0.69370      0.09455      
10400   0.80163    0.06228    0.08640    0.03336      0.60993      0.09667      0.04243      0.69322      0.09599      
10500   0.80164    0.06226    0.08637    0.03344      0.60989      0.09682      0.04265      0.69292      0.09570      
10600   0.80165    0.06226    0.08636    0.03317      0.61018      0.09670      0.04228      0.69339      0.09493      
10700   0.80155    0.06222    0.08634    0.03324      0.61006      0.09685      0.04251      0.69330      0.09514      
10800   0.80149    0.06212    0.08622    0.03330      0.61002      0.09832      0.04226      0.69331      0.09794      
10900   0.80121    0.06207    0.08617    0.03315      0.61020      0.09629      0.04233      0.69334      0.09547      
11000   0.80120    0.06202    0.08613    0.03319      0.61026      0.09598      0.04225      0.69319      0.09304      
11100   0.80096    0.06200    0.08613    0.03306      0.61009      0.09669      0.04230      0.69331      0.09472      
11200   0.80090    0.06199    0.08609    0.03335      0.61002      0.09449      0.04254      0.69334      0.09244      
11300   0.80090    0.06201    0.08608    0.03323      0.60987      0.09714      0.04221      0.69299      0.09650      
11400   0.80091    0.06199    0.08607    0.03294      0.61020      0.09711      0.04208      0.69364      0.09802      
11500   0.80074    0.06198    0.08602    0.03307      0.61005      0.09617      0.04206      0.69359      0.09571      
11600   0.80079    0.06201    0.08604    0.03328      0.60979      0.09665      0.04224      0.69299      0.09538      
11700   0.80056    0.06193    0.08597    0.03339      0.60969      0.09572      0.04246      0.69323      0.09496      
11800   0.80059    0.06194    0.08599    0.03344      0.60962      0.09605      0.04238      0.69299      0.09608      
11900   0.80056    0.06191    0.08597    0.03353      0.60923      0.09922      0.04267      0.69238      0.10051      
12000   0.80040    0.06189    0.08595    0.03324      0.60973      0.09583      0.04228      0.69303      0.09464      
12100   0.80043    0.06193    0.08593    0.03346      0.60958      0.09533      0.04234      0.69291      0.09478      
12200   0.80037    0.06195    0.08592    0.03312      0.60970      0.09678      0.04223      0.69304      0.09523      
12300   0.80011    0.06188    0.08583    0.03334      0.60965      0.09410      0.04244      0.69280      0.09239      
12400   0.80005    0.06185    0.08580    0.03312      0.60957      0.09714      0.04197      0.69272      0.09776      
12500   0.80027    0.06189    0.08578    0.03341      0.60936      0.09824      0.04245      0.69259      0.09980      
12600   0.80032    0.06186    0.08575    0.03313      0.60968      0.09903      0.04207      0.69301      0.09910      
12700   0.80013    0.06185    0.08573    0.03338      0.60945      0.09716      0.04245      0.69251      0.09690      
12800   0.80017    0.06185    0.08572    0.03356      0.60940      0.09638      0.04242      0.69239      0.09716      
12900   0.80003    0.06180    0.08570    0.03312      0.60966      0.09751      0.04215      0.69266      0.09722      
13000   0.80004    0.06176    0.08568    0.03319      0.60996      0.09449      0.04205      0.69318      0.09657      
13100   0.79968    0.06169    0.08560    0.03352      0.60945      0.09415      0.04264      0.69259      0.09573      
13200   0.79969    0.06166    0.08559    0.03336      0.60926      0.09820      0.04239      0.69260      0.10060      
13300   0.79975    0.06158    0.08551    0.03318      0.60965      0.09823      0.04209      0.69314      0.09949      
13400   0.79956    0.06161    0.08552    0.03387      0.60896      0.09607      0.04311      0.69211      0.09620      
13500   0.79946    0.06156    0.08549    0.03342      0.60934      0.09650      0.04231      0.69275      0.09962      
13600   0.79927    0.06150    0.08545    0.03341      0.60937      0.09548      0.04218      0.69256      0.09525      
13700   0.79912    0.06137    0.08535    0.03334      0.60925      0.09803      0.04219      0.69290      0.09778      
13800   0.79917    0.06141    0.08534    0.03334      0.60940      0.09665      0.04238      0.69254      0.09714      
13900   0.79885    0.06135    0.08528    0.03334      0.60926      0.09630      0.04246      0.69245      0.09792      
14000   0.79897    0.06133    0.08525    0.03337      0.60968      0.09335      0.04239      0.69322      0.09104      
14100   0.79894    0.06123    0.08521    0.03326      0.60947      0.09762      0.04223      0.69271      0.09980      
14200   0.79870    0.06128    0.08521    0.03366      0.60891      0.09658      0.04271      0.69230      0.09724      
14300   0.79842    0.06120    0.08512    0.03351      0.60900      0.09597      0.04274      0.69257      0.09616      
14400   0.79845    0.06112    0.08506    0.03296      0.60955      0.09754      0.04206      0.69293      0.09689      
14500   0.79824    0.06120    0.08509    0.03308      0.60925      0.09618      0.04211      0.69317      0.09570      
14600   0.79812    0.06108    0.08501    0.03297      0.60943      0.09640      0.04197      0.69300      0.09454      
14700   0.79794    0.06105    0.08500    0.03324      0.60904      0.09607      0.04232      0.69242      0.09472      
14800   0.79798    0.06114    0.08500    0.03346      0.60873      0.09656      0.04257      0.69240      0.09566      
14900   0.79783    0.06112    0.08494    0.03326      0.60894      0.09576      0.04242      0.69254      0.09400      
15000   0.79769    0.06105    0.08490    0.03340      0.60874      0.09612      0.04234      0.69217      0.09689      
15100   0.79782    0.06105    0.08490    0.03337      0.60905      0.09459      0.04230      0.69252      0.09253      
15200   0.79756    0.06109    0.08488    0.03337      0.60869      0.09536      0.04235      0.69213      0.09392      
15300   0.79733    0.06094    0.08480    0.03315      0.60882      0.09632      0.04217      0.69233      0.09514      
15400   0.79722    0.06090    0.08474    0.03321      0.60863      0.09734      0.04244      0.69219      0.09801      
15500   0.79725    0.06088    0.08471    0.03305      0.60908      0.09534      0.04224      0.69299      0.09625      
15600   0.79706    0.06087    0.08472    0.03320      0.60876      0.09517      0.04223      0.69199      0.09556      
15700   0.79713    0.06085    0.08472    0.03343      0.60875      0.09393      0.04251      0.69241      0.09309      
15800   0.79724    0.06091    0.08475    0.03348      0.60855      0.09551      0.04238      0.69193      0.09535      
15900   0.79712    0.06092    0.08473    0.03326      0.60849      0.09728      0.04233      0.69213      0.09812      
16000   0.79709    0.06089    0.08471    0.03328      0.60861      0.09598      0.04268      0.69230      0.09881      
16100   0.79721    0.06091    0.08471    0.03287      0.60909      0.09617      0.04203      0.69294      0.09744      
16200   0.79694    0.06083    0.08466    0.03323      0.60864      0.09585      0.04251      0.69250      0.09443      
16300   0.79673    0.06077    0.08458    0.03285      0.60889      0.09635      0.04189      0.69246      0.09701      
16400   0.79655    0.06065    0.08450    0.03310      0.60870      0.09599      0.04227      0.69250      0.09645      
16500   0.79661    0.06062    0.08450    0.03343      0.60819      0.09869      0.04270      0.69192      0.09930      
16600   0.79667    0.06065    0.08452    0.03338      0.60859      0.09524      0.04247      0.69230      0.09685      
16700   0.79657    0.06056    0.08443    0.03325      0.60877      0.09567      0.04249      0.69276      0.09643      
16800   0.79639    0.06050    0.08437    0.03359      0.60834      0.09593      0.04271      0.69201      0.09531      
16900   0.79629    0.06050    0.08434    0.03318      0.60883      0.09447      0.04224      0.69256      0.09341      
17000   0.79635    0.06056    0.08436    0.03329      0.60866      0.09482      0.04240      0.69228      0.09247      
17100   0.79624    0.06046    0.08431    0.03340      0.60860      0.09467      0.04267      0.69219      0.09318      
17200   0.79620    0.06050    0.08431    0.03349      0.60859      0.09302      0.04276      0.69238      0.09228      
17300   0.79621    0.06042    0.08428    0.03351      0.60841      0.09595      0.04288      0.69196      0.09459      
17400   0.79603    0.06045    0.08433    0.03320      0.60857      0.09476      0.04220      0.69213      0.09333      
17500   0.79610    0.06040    0.08426    0.03324      0.60872      0.09483      0.04224      0.69242      0.09442      
17600   0.79593    0.06040    0.08427    0.03327      0.60858      0.09420      0.04229      0.69201      0.09462      
17700   0.79576    0.06032    0.08423    0.03320      0.60874      0.09270      0.04232      0.69221      0.09142      
17800   0.79572    0.06037    0.08423    0.03343      0.60826      0.09424      0.04265      0.69157      0.09375      
17900   0.79570    0.06036    0.08421    0.03310      0.60875      0.09284      0.04202      0.69226      0.09315      
18000   0.79567    0.06033    0.08419    0.03314      0.60852      0.09499      0.04227      0.69185      0.09451      
18100   0.79549    0.06031    0.08415    0.03334      0.60832      0.09375      0.04231      0.69205      0.09230      
18200   0.79535    0.06039    0.08412    0.03346      0.60807      0.09311      0.04254      0.69124      0.09213      
18300   0.79533    0.06031    0.08407    0.03313      0.60823      0.09590      0.04220      0.69174      0.09466      
18400   0.79554    0.06034    0.08407    0.03307      0.60856      0.09500      0.04198      0.69218      0.09304      
18500   0.79535    0.06026    0.08402    0.03350      0.60818      0.09398      0.04259      0.69138      0.09193      
18600   0.79519    0.06026    0.08396    0.03316      0.60838      0.09441      0.04242      0.69159      0.09321      
18700   0.79536    0.06024    0.08394    0.03356      0.60834      0.09287      0.04270      0.69170      0.08929      
18800   0.79516    0.06020    0.08391    0.03331      0.60812      0.09619      0.04255      0.69164      0.09467      
18900   0.79501    0.06016    0.08387    0.03320      0.60830      0.09484      0.04226      0.69180      0.09247      
19000   0.79500    0.06005    0.08379    0.03348      0.60834      0.09336      0.04248      0.69166      0.09023      
19100   0.79496    0.06005    0.08381    0.03303      0.60850      0.09564      0.04213      0.69222      0.09385      
19200   0.79490    0.06001    0.08378    0.03336      0.60837      0.09391      0.04265      0.69209      0.09072      
19300   0.79469    0.05996    0.08375    0.03325      0.60818      0.09546      0.04239      0.69190      0.09409      
19400   0.79474    0.06000    0.08380    0.03316      0.60845      0.09337      0.04217      0.69233      0.09138      
19500   0.79453    0.05997    0.08373    0.03291      0.60845      0.09477      0.04195      0.69251      0.09344      
19600   0.79464    0.06001    0.08375    0.03300      0.60832      0.09559      0.04212      0.69208      0.09461      
19700   0.79454    0.05998    0.08376    0.03320      0.60827      0.09333      0.04239      0.69210      0.09054      
19800   0.79435    0.05995    0.08370    0.03308      0.60802      0.09591      0.04225      0.69162      0.09452      
19900   0.79450    0.05997    0.08372    0.03322      0.60820      0.09387      0.04249      0.69181      0.09180      
20000   0.79439    0.05996    0.08371    0.03326      0.60791      0.09552      0.04260      0.69163      0.09530      
20100   0.79451    0.05989    0.08365    0.03334      0.60809      0.09537      0.04261      0.69187      0.09357      
20200   0.79435    0.05992    0.08363    0.03318      0.60807      0.09552      0.04239      0.69196      0.09532      
20300   0.79417    0.05989    0.08360    0.03340      0.60773      0.09547      0.04277      0.69159      0.09337      
20400   0.79422    0.05987    0.08360    0.03307      0.60819      0.09486      0.04212      0.69216      0.09294      
20500   0.79400    0.05983    0.08353    0.03329      0.60779      0.09565      0.04247      0.69166      0.09538      
20600   0.79386    0.05974    0.08346    0.03311      0.60794      0.09607      0.04231      0.69187      0.09670      
20700   0.79373    0.05975    0.08342    0.03288      0.60817      0.09512      0.04213      0.69205      0.09331      
20800   0.79372    0.05972    0.08338    0.03309      0.60803      0.09491      0.04216      0.69221      0.09394      
20900   0.79377    0.05970    0.08333    0.03286      0.60820      0.09678      0.04184      0.69236      0.09647      
21000   0.79374    0.05961    0.08328    0.03368      0.60777      0.09397      0.04298      0.69200      0.09174      
21100   0.79338    0.05956    0.08323    0.03330      0.60763      0.09658      0.04262      0.69147      0.09677      
21200   0.79329    0.05946    0.08315    0.03337      0.60770      0.09617      0.04241      0.69139      0.09673      
21300   0.79319    0.05946    0.08314    0.03291      0.60804      0.09626      0.04211      0.69192      0.09642      
21400   0.79326    0.05948    0.08315    0.03313      0.60810      0.09399      0.04237      0.69188      0.09276      
21500   0.79297    0.05936    0.08308    0.03332      0.60765      0.09562      0.04255      0.69127      0.09397      
21600   0.79300    0.05931    0.08305    0.03330      0.60786      0.09483      0.04259      0.69152      0.09282      
21700   0.79312    0.05933    0.08305    0.03354      0.60771      0.09484      0.04250      0.69150      0.09250      
21800   0.79312    0.05937    0.08305    0.03333      0.60780      0.09581      0.04247      0.69138      0.09250      
21900   0.79300    0.05926    0.08296    0.03311      0.60777      0.09899      0.04213      0.69151      0.09857      
22000   0.79273    0.05919    0.08291    0.03324      0.60783      0.09548      0.04217      0.69144      0.09336      
22100   0.79253    0.05915    0.08288    0.03290      0.60825      0.09355      0.04183      0.69204      0.09166      
22200   0.79249    0.05916    0.08286    0.03301      0.60802      0.09437      0.04196      0.69206      0.09282      
22300   0.79228    0.05905    0.08278    0.03297      0.60809      0.09389      0.04209      0.69212      0.09425      
22400   0.79225    0.05904    0.08279    0.03293      0.60800      0.09491      0.04215      0.69226      0.09371      
22500   0.79225    0.05904    0.08280    0.03295      0.60781      0.09652      0.04196      0.69194      0.09885      
22600   0.79219    0.05898    0.08276    0.03321      0.60767      0.09570      0.04229      0.69188      0.09469      
22700   0.79205    0.05893    0.08271    0.03293      0.60785      0.09631      0.04199      0.69211      0.09571      
22800   0.79198    0.05895    0.08269    0.03322      0.60760      0.09520      0.04231      0.69157      0.09373      
22900   0.79203    0.05891    0.08266    0.03326      0.60782      0.09384      0.04223      0.69156      0.09185      
23000   0.79191    0.05890    0.08262    0.03298      0.60799      0.09426      0.04191      0.69203      0.09265      
23100   0.79193    0.05895    0.08265    0.03308      0.60784      0.09406      0.04211      0.69181      0.09343      
23200   0.79196    0.05898    0.08266    0.03371      0.60719      0.09412      0.04303      0.69089      0.09215      
23300   0.79194    0.05896    0.08262    0.03318      0.60750      0.09676      0.04222      0.69145      0.09617      
23400   0.79186    0.05898    0.08262    0.03308      0.60777      0.09419      0.04205      0.69174      0.09207      
23500   0.79174    0.05889    0.08260    0.03308      0.60764      0.09517      0.04217      0.69185      0.09337      
23600   0.79139    0.05883    0.08254    0.03315      0.60733      0.09543      0.04232      0.69120      0.09389      
23700   0.79153    0.05880    0.08248    0.03328      0.60759      0.09385      0.04232      0.69151      0.09202      
23800   0.79150    0.05882    0.08245    0.03321      0.60767      0.09346      0.04221      0.69160      0.09193      
23900   0.79119    0.05872    0.08233    0.03347      0.60711      0.09566      0.04255      0.69100      0.09485      
24000   0.79104    0.05855    0.08223    0.03340      0.60740      0.09453      0.04236      0.69119      0.09249      
24100   0.79070    0.05856    0.08222    0.03324      0.60720      0.09480      0.04227      0.69110      0.09454      
24200   0.79089    0.05849    0.08214    0.03319      0.60764      0.09429      0.04228      0.69151      0.09267      
24300   0.79073    0.05845    0.08210    0.03301      0.60768      0.09491      0.04177      0.69179      0.09344      
24400   0.79060    0.05843    0.08209    0.03334      0.60748      0.09257      0.04254      0.69112      0.08991      
24500   0.79068    0.05844    0.08207    0.03369      0.60721      0.09284      0.04300      0.69079      0.09021      
24600   0.79047    0.05842    0.08205    0.03315      0.60725      0.09594      0.04202      0.69077      0.09579      
24700   0.79048    0.05840    0.08203    0.03305      0.60732      0.09677      0.04205      0.69090      0.09536      
24800   0.79043    0.05836    0.08195    0.03316      0.60757      0.09392      0.04213      0.69124      0.09185      
24900   0.79027    0.05832    0.08190    0.03330      0.60737      0.09392      0.04236      0.69094      0.09210      
25000   0.79028    0.05833    0.08189    0.03358      0.60698      0.09494      0.04273      0.69039      0.09384      
25100   0.79038    0.05839    0.08194    0.03312      0.60766      0.09262      0.04226      0.69156      0.09104      
25200   0.79036    0.05835    0.08191    0.03342      0.60727      0.09419      0.04242      0.69087      0.09312      
25300   0.79007    0.05827    0.08187    0.03318      0.60748      0.09269      0.04224      0.69145      0.09184      
25400   0.79011    0.05828    0.08187    0.03332      0.60720      0.09454      0.04261      0.69110      0.09442      
25500   0.78983    0.05819    0.08183    0.03294      0.60727      0.09591      0.04208      0.69105      0.09768      
25600   0.79002    0.05817    0.08179    0.03316      0.60756      0.09339      0.04229      0.69134      0.09376      
25700   0.78990    0.05817    0.08180    0.03347      0.60707      0.09402      0.04285      0.69060      0.09242      
25800   0.78977    0.05807    0.08174    0.03324      0.60737      0.09347      0.04236      0.69143      0.09067      
25900   0.78969    0.05805    0.08171    0.03307      0.60735      0.09507      0.04212      0.69154      0.09466      
26000   0.78959    0.05803    0.08168    0.03297      0.60756      0.09355      0.04199      0.69150      0.09209      
26100   0.78959    0.05805    0.08169    0.03304      0.60739      0.09420      0.04213      0.69124      0.09407      
26200   0.78941    0.05797    0.08163    0.03331      0.60702      0.09482      0.04224      0.69078      0.09372      
26300   0.78943    0.05796    0.08158    0.03330      0.60715      0.09436      0.04247      0.69072      0.09269      
26400   0.78925    0.05784    0.08151    0.03320      0.60734      0.09355      0.04216      0.69115      0.09148      
26500   0.78901    0.05779    0.08148    0.03330      0.60714      0.09303      0.04245      0.69085      0.09298      
26600   0.78912    0.05777    0.08144    0.03333      0.60715      0.09444      0.04235      0.69081      0.09378      
26700   0.78918    0.05773    0.08146    0.03338      0.60709      0.09512      0.04229      0.69081      0.09393      
26800   0.78910    0.05769    0.08143    0.03303      0.60760      0.09350      0.04197      0.69120      0.09220      
26900   0.78898    0.05760    0.08137    0.03365      0.60711      0.09256      0.04256      0.69064      0.09372      
27000   0.78883    0.05755    0.08134    0.03320      0.60742      0.09321      0.04209      0.69084      0.09269      
27100   0.78871    0.05749    0.08127    0.03310      0.60717      0.09673      0.04222      0.69045      0.09848      
27200   0.78883    0.05746    0.08124    0.03295      0.60769      0.09475      0.04189      0.69114      0.09615      
27300   0.78850    0.05746    0.08121    0.03311      0.60730      0.09427      0.04229      0.69069      0.09472      
27400   0.78834    0.05737    0.08114    0.03341      0.60716      0.09258      0.04257      0.69057      0.09072      
27500   0.78829    0.05736    0.08108    0.03350      0.60687      0.09473      0.04259      0.69044      0.09450      
27600   0.78823    0.05733    0.08105    0.03311      0.60733      0.09410      0.04225      0.69093      0.09285      
27700   0.78812    0.05726    0.08102    0.03331      0.60733      0.09208      0.04254      0.69091      0.08875      
27800   0.78807    0.05721    0.08096    0.03330      0.60739      0.09200      0.04238      0.69102      0.08905      
27900   0.78782    0.05718    0.08089    0.03335      0.60675      0.09650      0.04245      0.69021      0.09629      
28000   0.78790    0.05723    0.08089    0.03330      0.60707      0.09414      0.04240      0.69059      0.09208      
28100   0.78800    0.05727    0.08088    0.03347      0.60705      0.09337      0.04263      0.69046      0.09285      
28200   0.78788    0.05717    0.08085    0.03330      0.60726      0.09299      0.04221      0.69074      0.09110      
28300   0.78786    0.05712    0.08081    0.03310      0.60725      0.09578      0.04209      0.69066      0.09637      
28400   0.78771    0.05713    0.08080    0.03322      0.60717      0.09383      0.04227      0.69050      0.09206      
28500   0.78777    0.05710    0.08078    0.03287      0.60741      0.09617      0.04198      0.69102      0.09660      
28600   0.78759    0.05713    0.08077    0.03336      0.60684      0.09476      0.04254      0.69028      0.09366      
28700   0.78760    0.05705    0.08074    0.03292      0.60756      0.09328      0.04218      0.69139      0.09261      
28800   0.78748    0.05708    0.08075    0.03304      0.60709      0.09513      0.04235      0.69071      0.09295      
28900   0.78738    0.05701    0.08067    0.03342      0.60685      0.09426      0.04275      0.69065      0.09177      
29000   0.78745    0.05701    0.08070    0.03307      0.60736      0.09303      0.04237      0.69124      0.09023      
29100   0.78745    0.05703    0.08070    0.03303      0.60716      0.09526      0.04218      0.69086      0.09316      
29200   0.78745    0.05702    0.08068    0.03333      0.60695      0.09469      0.04247      0.69046      0.09332      
29300   0.78744    0.05702    0.08068    0.03306      0.60716      0.09519      0.04194      0.69080      0.09442      
29400   0.78725    0.05695    0.08064    0.03353      0.60677      0.09354      0.04286      0.69032      0.09260      
29500   0.78732    0.05699    0.08064    0.03333      0.60701      0.09339      0.04262      0.69071      0.09200      
29600   0.78723    0.05695    0.08059    0.03288      0.60740      0.09404      0.04182      0.69110      0.09353      
29700   0.78701    0.05688    0.08054    0.03288      0.60712      0.09597      0.04200      0.69099      0.09557      
29800   0.78704    0.05682    0.08051    0.03328      0.60690      0.09537      0.04245      0.69056      0.09391      
29900   0.78679    0.05684    0.08048    0.03326      0.60681      0.09399      0.04236      0.69027      0.09362      
30000   0.78682    0.05683    0.08049    0.03294      0.60711      0.09448      0.04212      0.69085      0.09419      
30100   0.78680    0.05679    0.08047    0.03340      0.60685      0.09289      0.04249      0.69008      0.09244      
30200   0.78673    0.05682    0.08050    0.03318      0.60696      0.09263      0.04235      0.69070      0.09302      
30300   0.78663    0.05680    0.08050    0.03301      0.60682      0.09502      0.04222      0.69055      0.09571      
30400   0.78669    0.05679    0.08049    0.03299      0.60711      0.09320      0.04210      0.69097      0.09182      
30500   0.78683    0.05688    0.08053    0.03323      0.60649      0.09699      0.04225      0.69011      0.09644      
30600   0.78644    0.05683    0.08053    0.03309      0.60665      0.09351      0.04223      0.69025      0.09223      
30700   0.78637    0.05678    0.08049    0.03324      0.60651      0.09348      0.04234      0.69029      0.09168      
30800   0.78638    0.05680    0.08047    0.03346      0.60623      0.09412      0.04257      0.68980      0.09428      
30900   0.78626    0.05677    0.08044    0.03321      0.60626      0.09589      0.04213      0.68983      0.09617      
31000   0.78626    0.05675    0.08040    0.03326      0.60652      0.09326      0.04205      0.69043      0.09183      
31100   0.78620    0.05668    0.08036    0.03316      0.60643      0.09557      0.04239      0.69027      0.09529      
31200   0.78614    0.05668    0.08035    0.03313      0.60665      0.09322      0.04220      0.69006      0.09264      
31300   0.78608    0.05667    0.08034    0.03320      0.60654      0.09331      0.04221      0.69036      0.09241      
31400   0.78586    0.05665    0.08033    0.03317      0.60631      0.09407      0.04210      0.69032      0.09409      
31500   0.78587    0.05664    0.08031    0.03308      0.60640      0.09445      0.04224      0.68978      0.09245      
31600   0.78582    0.05662    0.08027    0.03321      0.60633      0.09390      0.04235      0.69017      0.09343      
31700   0.78575    0.05665    0.08028    0.03291      0.60644      0.09472      0.04192      0.69048      0.09477      
31800   0.78558    0.05660    0.08022    0.03308      0.60632      0.09356      0.04229      0.69026      0.09265      
31900   0.78549    0.05654    0.08018    0.03295      0.60629      0.09522      0.04199      0.68995      0.09563      
32000   0.78555    0.05649    0.08017    0.03301      0.60643      0.09451      0.04223      0.69025      0.09579      
32100   0.78541    0.05653    0.08015    0.03321      0.60620      0.09316      0.04244      0.68998      0.09293      
32200   0.78527    0.05652    0.08014    0.03290      0.60636      0.09350      0.04203      0.69042      0.09291      
32300   0.78544    0.05652    0.08010    0.03313      0.60617      0.09508      0.04239      0.68988      0.09496      
32400   0.78537    0.05646    0.08008    0.03310      0.60624      0.09491      0.04226      0.69014      0.09486      
32500   0.78520    0.05641    0.08002    0.03295      0.60628      0.09532      0.04217      0.69005      0.09419      
32600   0.78518    0.05645    0.08004    0.03303      0.60621      0.09449      0.04220      0.69011      0.09448      
32700   0.78508    0.05645    0.08000    0.03311      0.60589      0.09633      0.04243      0.68965      0.09691      
32800   0.78504    0.05636    0.07999    0.03304      0.60631      0.09348      0.04210      0.69018      0.09308      
32900   0.78518    0.05643    0.08003    0.03305      0.60640      0.09270      0.04227      0.69024      0.09195      
33000   0.78513    0.05636    0.07998    0.03291      0.60648      0.09397      0.04206      0.69046      0.09439      
33100   0.78490    0.05637    0.08000    0.03308      0.60603      0.09426      0.04230      0.68955      0.09581      
33200   0.78475    0.05631    0.07994    0.03292      0.60620      0.09386      0.04210      0.68978      0.09350      
33300   0.78467    0.05628    0.07991    0.03312      0.60588      0.09464      0.04241      0.68898      0.09504      
33400   0.78461    0.05632    0.07992    0.03311      0.60583      0.09434      0.04238      0.68965      0.09489      
33500   0.78456    0.05629    0.07988    0.03298      0.60577      0.09643      0.04233      0.68931      0.09758      
33600   0.78444    0.05623    0.07985    0.03307      0.60579      0.09508      0.04232      0.68914      0.09521      
33700   0.78433    0.05620    0.07981    0.03301      0.60591      0.09395      0.04206      0.68903      0.09235      
33800   0.78443    0.05617    0.07979    0.03311      0.60601      0.09341      0.04197      0.68959      0.09250      
33900   0.78425    0.05616    0.07978    0.03300      0.60590      0.09406      0.04204      0.68931      0.09352      
34000   0.78409    0.05618    0.07981    0.03320      0.60552      0.09386      0.04238      0.68869      0.09463      
34100   0.78430    0.05618    0.07981    0.03314      0.60567      0.09495      0.04213      0.68886      0.09575      
34200   0.78400    0.05612    0.07977    0.03284      0.60599      0.09284      0.04206      0.68931      0.09317      
34300   0.78413    0.05610    0.07972    0.03297      0.60595      0.09391      0.04232      0.68931      0.09530      
34400   0.78409    0.05611    0.07973    0.03334      0.60558      0.09333      0.04253      0.68911      0.09281      
34500   0.78396    0.05600    0.07968    0.03323      0.60566      0.09383      0.04254      0.68919      0.09302      
34600   0.78383    0.05598    0.07963    0.03312      0.60565      0.09454      0.04230      0.68924      0.09737      
34700   0.78380    0.05594    0.07957    0.03289      0.60595      0.09442      0.04217      0.68979      0.09518      
34800   0.78375    0.05589    0.07956    0.03314      0.60557      0.09580      0.04219      0.68931      0.09652      
34900   0.78363    0.05594    0.07960    0.03289      0.60572      0.09470      0.04206      0.68966      0.09485      
35000   0.78370    0.05588    0.07955    0.03302      0.60592      0.09312      0.04234      0.68954      0.09353      
35100   0.78360    0.05588    0.07956    0.03310      0.60570      0.09366      0.04246      0.68938      0.09145      
35200   0.78329    0.05583    0.07952    0.03272      0.60587      0.09342      0.04190      0.68933      0.09302      
35300   0.78329    0.05582    0.07950    0.03305      0.60568      0.09241      0.04215      0.68914      0.09386      
35400   0.78326    0.05575    0.07946    0.03275      0.60590      0.09403      0.04202      0.68933      0.09682      
35500   0.78315    0.05570    0.07942    0.03264      0.60588      0.09507      0.04186      0.68948      0.09785      
35600   0.78309    0.05565    0.07936    0.03284      0.60591      0.09323      0.04184      0.68962      0.09568      
35700   0.78296    0.05564    0.07933    0.03286      0.60567      0.09450      0.04196      0.68931      0.09546      
35800   0.78299    0.05565    0.07929    0.03323      0.60542      0.09401      0.04247      0.68896      0.09555      
35900   0.78291    0.05567    0.07931    0.03276      0.60589      0.09285      0.04177      0.68954      0.09360      
36000   0.78306    0.05571    0.07930    0.03260      0.60597      0.09473      0.04162      0.68947      0.09544      
36100   0.78294    0.05573    0.07929    0.03278      0.60578      0.09358      0.04184      0.68926      0.09442      
36200   0.78281    0.05561    0.07919    0.03311      0.60559      0.09317      0.04238      0.68877      0.09467      
36300   0.78276    0.05561    0.07919    0.03306      0.60557      0.09326      0.04235      0.68913      0.09441      
36400   0.78261    0.05559    0.07916    0.03281      0.60568      0.09368      0.04188      0.68909      0.09541      
36500   0.78269    0.05558    0.07913    0.03313      0.60558      0.09269      0.04206      0.68910      0.09149      
36600   0.78239    0.05548    0.07904    0.03271      0.60584      0.09318      0.04173      0.68925      0.09546      
36700   0.78242    0.05547    0.07902    0.03325      0.60512      0.09566      0.04251      0.68840      0.09647      
36800   0.78236    0.05544    0.07902    0.03295      0.60556      0.09377      0.04214      0.68874      0.09431      
36900   0.78229    0.05545    0.07901    0.03326      0.60530      0.09269      0.04240      0.68865      0.09257      
37000   0.78227    0.05545    0.07898    0.03304      0.60535      0.09452      0.04205      0.68861      0.09623      
37100   0.78218    0.05545    0.07895    0.03286      0.60554      0.09370      0.04205      0.68910      0.09396      
37200   0.78218    0.05549    0.07896    0.03286      0.60564      0.09231      0.04201      0.68928      0.09178      
37300   0.78225    0.05544    0.07893    0.03333      0.60503      0.09511      0.04257      0.68823      0.09763      
37400   0.78208    0.05542    0.07889    0.03312      0.60528      0.09363      0.04237      0.68883      0.09327      
37500   0.78221    0.05542    0.07887    0.03274      0.60571      0.09470      0.04180      0.68914      0.09537      
37600   0.78205    0.05536    0.07885    0.03306      0.60521      0.09568      0.04212      0.68846      0.09434      
37700   0.78209    0.05536    0.07881    0.03319      0.60535      0.09371      0.04257      0.68850      0.09247      
37800   0.78199    0.05532    0.07881    0.03313      0.60536      0.09366      0.04227      0.68874      0.09316      
37900   0.78207    0.05538    0.07882    0.03317      0.60535      0.09349      0.04242      0.68880      0.09327      
38000   0.78192    0.05536    0.07880    0.03302      0.60536      0.09381      0.04192      0.68883      0.09233      
38100   0.78181    0.05532    0.07876    0.03260      0.60562      0.09514      0.04153      0.68894      0.09505      
38200   0.78184    0.05539    0.07877    0.03294      0.60534      0.09401      0.04205      0.68856      0.09317      
38300   0.78192    0.05539    0.07880    0.03288      0.60539      0.09465      0.04211      0.68804      0.09350      
38400   0.78182    0.05540    0.07881    0.03309      0.60515      0.09371      0.04215      0.68817      0.09551      
38500   0.78170    0.05541    0.07880    0.03266      0.60553      0.09293      0.04180      0.68872      0.09162      
38600   0.78184    0.05539    0.07879    0.03324      0.60522      0.09207      0.04237      0.68833      0.09095      
38700   0.78176    0.05538    0.07878    0.03322      0.60494      0.09444      0.04234      0.68820      0.09539      
38800   0.78163    0.05535    0.07872    0.03281      0.60531      0.09433      0.04188      0.68875      0.09395      
38900   0.78171    0.05535    0.07873    0.03279      0.60543      0.09410      0.04165      0.68881      0.09241      
39000   0.78159    0.05528    0.07868    0.03301      0.60529      0.09332      0.04215      0.68853      0.09243      
39100   0.78150    0.05533    0.07867    0.03302      0.60507      0.09399      0.04207      0.68828      0.09307      
39200   0.78156    0.05530    0.07865    0.03301      0.60521      0.09391      0.04216      0.68862      0.09297      
39300   0.78142    0.05528    0.07863    0.03308      0.60518      0.09250      0.04232      0.68880      0.09098      
39400   0.78128    0.05518    0.07854    0.03296      0.60526      0.09336      0.04222      0.68881      0.09281      
39500   0.78123    0.05516    0.07852    0.03283      0.60543      0.09296      0.04200      0.68840      0.09265      
39600   0.78100    0.05512    0.07849    0.03291      0.60513      0.09350      0.04202      0.68866      0.09407      
39700   0.78105    0.05511    0.07846    0.03289      0.60516      0.09426      0.04205      0.68860      0.09612      
39800   0.78112    0.05506    0.07845    0.03286      0.60563      0.09132      0.04197      0.68904      0.08937      
39900   0.78090    0.05507    0.07838    0.03282      0.60543      0.09205      0.04191      0.68873      0.09040      
40000   0.78074    0.05504    0.07836    0.03296      0.60513      0.09258      0.04212      0.68854      0.09158      
40100   0.78079    0.05503    0.07832    0.03281      0.60528      0.09356      0.04184      0.68859      0.09288      
40200   0.78067    0.05492    0.07827    0.03281      0.60516      0.09504      0.04175      0.68806      0.09527      
40300   0.78050    0.05490    0.07827    0.03289      0.60520      0.09243      0.04184      0.68841      0.09164      
40400   0.78045    0.05485    0.07820    0.03279      0.60526      0.09349      0.04199      0.68803      0.09229      
40500   0.78022    0.05476    0.07817    0.03308      0.60491      0.09304      0.04237      0.68781      0.09251      
40600   0.78024    0.05482    0.07818    0.03267      0.60503      0.09550      0.04184      0.68801      0.09554      
40700   0.78020    0.05481    0.07817    0.03286      0.60494      0.09416      0.04188      0.68803      0.09406      
40800   0.78023    0.05482    0.07815    0.03287      0.60480      0.09581      0.04197      0.68783      0.09635      
40900   0.78035    0.05491    0.07816    0.03268      0.60510      0.09506      0.04178      0.68836      0.09485      
41000   0.78028    0.05482    0.07809    0.03282      0.60525      0.09302      0.04189      0.68838      0.09190      
41100   0.78015    0.05484    0.07814    0.03285      0.60498      0.09335      0.04180      0.68812      0.09204      
41200   0.78008    0.05478    0.07807    0.03269      0.60539      0.09156      0.04175      0.68863      0.08896      
41300   0.77997    0.05478    0.07805    0.03297      0.60482      0.09348      0.04198      0.68800      0.09310      
41400   0.77995    0.05477    0.07804    0.03309      0.60484      0.09213      0.04211      0.68798      0.09093      
41500   0.77989    0.05474    0.07804    0.03319      0.60471      0.09203      0.04250      0.68754      0.09066      
41600   0.77975    0.05469    0.07801    0.03302      0.60464      0.09388      0.04222      0.68760      0.09369      
41700   0.77978    0.05467    0.07800    0.03283      0.60494      0.09333      0.04207      0.68804      0.09302      
41800   0.77961    0.05464    0.07796    0.03263      0.60492      0.09465      0.04167      0.68783      0.09464      
41900   0.77966    0.05457    0.07792    0.03290      0.60479      0.09480      0.04198      0.68754      0.09657      
42000   0.77961    0.05459    0.07791    0.03320      0.60438      0.09539      0.04228      0.68717      0.09745      
42100   0.77953    0.05456    0.07789    0.03292      0.60490      0.09258      0.04217      0.68771      0.09193      
42200   0.77954    0.05459    0.07790    0.03270      0.60521      0.09132      0.04183      0.68813      0.09000      
42300   0.77949    0.05459    0.07789    0.03306      0.60457      0.09388      0.04234      0.68753      0.09449      
42400   0.77940    0.05456    0.07789    0.03281      0.60497      0.09170      0.04196      0.68792      0.09153      
42500   0.77958    0.05454    0.07786    0.03271      0.60518      0.09283      0.04193      0.68819      0.09324      
42600   0.77950    0.05456    0.07787    0.03292      0.60483      0.09329      0.04185      0.68795      0.09417      
42700   0.77945    0.05450    0.07783    0.03293      0.60478      0.09401      0.04197      0.68793      0.09589      
42800   0.77915    0.05446    0.07776    0.03292      0.60482      0.09201      0.04208      0.68790      0.09184      
42900   0.77917    0.05436    0.07773    0.03262      0.60506      0.09402      0.04172      0.68824      0.09500      
43000   0.77914    0.05435    0.07769    0.03321      0.60459      0.09301      0.04239      0.68800      0.09374      
43100   0.77902    0.05431    0.07769    0.03279      0.60482      0.09404      0.04198      0.68817      0.09528      
43200   0.77908    0.05429    0.07766    0.03295      0.60496      0.09217      0.04219      0.68829      0.09163      
43300   0.77903    0.05432    0.07768    0.03330      0.60456      0.09165      0.04268      0.68793      0.09083      
43400   0.77900    0.05423    0.07766    0.03340      0.60449      0.09217      0.04274      0.68809      0.09025      
43500   0.77885    0.05425    0.07767    0.03274      0.60500      0.09194      0.04183      0.68848      0.09135      
43600   0.77870    0.05422    0.07761    0.03271      0.60491      0.09249      0.04187      0.68808      0.09182      
43700   0.77877    0.05422    0.07759    0.03278      0.60498      0.09199      0.04185      0.68820      0.09026      
43800   0.77883    0.05422    0.07759    0.03309      0.60454      0.09380      0.04221      0.68778      0.09298      
43900   0.77868    0.05424    0.07759    0.03276      0.60468      0.09411      0.04186      0.68810      0.09275      
44000   0.77866    0.05420    0.07756    0.03290      0.60464      0.09351      0.04187      0.68834      0.09215      
44100   0.77862    0.05415    0.07752    0.03291      0.60463      0.09418      0.04199      0.68800      0.09370      
44200   0.77849    0.05411    0.07751    0.03282      0.60475      0.09304      0.04181      0.68829      0.09112      
44300   0.77855    0.05409    0.07750    0.03275      0.60487      0.09338      0.04180      0.68838      0.09151      
44400   0.77844    0.05408    0.07752    0.03284      0.60466      0.09343      0.04178      0.68834      0.09240      
44500   0.77835    0.05409    0.07753    0.03263      0.60473      0.09360      0.04161      0.68841      0.09232      
44600   0.77837    0.05408    0.07753    0.03252      0.60494      0.09286      0.04160      0.68862      0.09071      
44700   0.77830    0.05410    0.07755    0.03271      0.60454      0.09402      0.04189      0.68805      0.09383      
44800   0.77820    0.05407    0.07750    0.03282      0.60449      0.09312      0.04199      0.68781      0.09078      
44900   0.77823    0.05404    0.07745    0.03259      0.60484      0.09303      0.04147      0.68846      0.09239      
45000   0.77813    0.05405    0.07745    0.03293      0.60430      0.09390      0.04195      0.68779      0.09326      
45100   0.77816    0.05404    0.07747    0.03299      0.60435      0.09322      0.04196      0.68789      0.09278      
45200   0.77805    0.05403    0.07744    0.03281      0.60448      0.09290      0.04177      0.68822      0.09205      
45300   0.77810    0.05404    0.07746    0.03293      0.60441      0.09260      0.04188      0.68808      0.09142      
45400   0.77796    0.05399    0.07739    0.03275      0.60473      0.09096      0.04173      0.68868      0.08894      
45500   0.77788    0.05392    0.07738    0.03243      0.60471      0.09452      0.04130      0.68852      0.09437      
45600   0.77788    0.05397    0.07736    0.03277      0.60445      0.09339      0.04184      0.68811      0.09276      
45700   0.77789    0.05396    0.07736    0.03259      0.60455      0.09424      0.04143      0.68842      0.09470      
45800   0.77792    0.05395    0.07735    0.03279      0.60451      0.09326      0.04181      0.68857      0.09219      
45900   0.77784    0.05394    0.07731    0.03252      0.60476      0.09319      0.04136      0.68862      0.09263      
46000   0.77783    0.05391    0.07729    0.03275      0.60457      0.09313      0.04179      0.68814      0.09320      
46100   0.77783    0.05383    0.07721    0.03299      0.60442      0.09389      0.04195      0.68785      0.09354      
46200   0.77776    0.05383    0.07721    0.03270      0.60451      0.09506      0.04172      0.68829      0.09473      
46300   0.77766    0.05382    0.07717    0.03299      0.60424      0.09441      0.04208      0.68780      0.09612      
46400   0.77752    0.05384    0.07718    0.03281      0.60445      0.09244      0.04183      0.68810      0.09225      
46500   0.77761    0.05379    0.07714    0.03258      0.60482      0.09288      0.04145      0.68867      0.09289      
46600   0.77747    0.05378    0.07712    0.03293      0.60448      0.09161      0.04181      0.68822      0.08976      
46700   0.77757    0.05379    0.07711    0.03323      0.60422      0.09231      0.04209      0.68770      0.09148      
46800   0.77745    0.05376    0.07709    0.03270      0.60469      0.09207      0.04149      0.68839      0.09175      
46900   0.77734    0.05368    0.07706    0.03292      0.60439      0.09299      0.04196      0.68757      0.09378      
47000   0.77738    0.05370    0.07704    0.03263      0.60454      0.09484      0.04156      0.68785      0.09615      
47100   0.77727    0.05366    0.07705    0.03298      0.60435      0.09229      0.04213      0.68778      0.09338      
47200   0.77709    0.05361    0.07703    0.03280      0.60441      0.09251      0.04177      0.68800      0.09201      
47300   0.77710    0.05362    0.07702    0.03293      0.60423      0.09300      0.04205      0.68760      0.09288      
47400   0.77716    0.05359    0.07703    0.03300      0.60411      0.09437      0.04218      0.68730      0.09618      
47500   0.77693    0.05357    0.07702    0.03284      0.60419      0.09306      0.04191      0.68727      0.09283      
47600   0.77681    0.05354    0.07700    0.03283      0.60411      0.09319      0.04201      0.68722      0.09261      
47700   0.77676    0.05356    0.07700    0.03270      0.60423      0.09271      0.04180      0.68757      0.09293      
47800   0.77667    0.05354    0.07697    0.03279      0.60404      0.09336      0.04194      0.68738      0.09323      
47900   0.77672    0.05348    0.07691    0.03264      0.60421      0.09473      0.04170      0.68769      0.09498      
48000   0.77673    0.05352    0.07690    0.03279      0.60420      0.09319      0.04189      0.68759      0.09254      
48100   0.77661    0.05348    0.07686    0.03296      0.60417      0.09135      0.04203      0.68748      0.08966      
48200   0.77643    0.05345    0.07683    0.03302      0.60389      0.09252      0.04224      0.68716      0.09087      
48300   0.77629    0.05336    0.07679    0.03280      0.60411      0.09233      0.04187      0.68746      0.09121      
48400   0.77632    0.05338    0.07679    0.03271      0.60434      0.09099      0.04180      0.68798      0.08898      
48500   0.77649    0.05333    0.07675    0.03269      0.60438      0.09337      0.04166      0.68789      0.09319      
48600   0.77634    0.05332    0.07678    0.03274      0.60406      0.09444      0.04180      0.68755      0.09507      
48700   0.77634    0.05327    0.07673    0.03278      0.60437      0.09193      0.04200      0.68807      0.09050      
48800   0.77620    0.05326    0.07671    0.03280      0.60410      0.09315      0.04175      0.68764      0.09303      
48900   0.77615    0.05324    0.07668    0.03290      0.60399      0.09338      0.04199      0.68749      0.09374      
49000   0.77608    0.05325    0.07667    0.03289      0.60410      0.09169      0.04196      0.68778      0.09088      
49100   0.77593    0.05319    0.07663    0.03270      0.60393      0.09458      0.04170      0.68766      0.09518      
49200   0.77585    0.05313    0.07656    0.03286      0.60388      0.09420      0.04187      0.68751      0.09392      
49300   0.77574    0.05307    0.07652    0.03277      0.60398      0.09401      0.04181      0.68735      0.09300      
49400   0.77573    0.05309    0.07649    0.03272      0.60415      0.09282      0.04172      0.68774      0.09243      
49500   0.77569    0.05306    0.07646    0.03286      0.60407      0.09246      0.04186      0.68769      0.09118      
49600   0.77554    0.05301    0.07642    0.03246      0.60427      0.09384      0.04145      0.68789      0.09341      
49700   0.77563    0.05305    0.07644    0.03258      0.60417      0.09382      0.04164      0.68760      0.09260      
49800   0.77550    0.05306    0.07643    0.03258      0.60413      0.09311      0.04159      0.68768      0.09153      
49900   0.77553    0.05308    0.07640    0.03277      0.60412      0.09159      0.04190      0.68753      0.09003      
50000   0.77536    0.05305    0.07638    0.03250      0.60405      0.09371      0.04162      0.68778      0.09176      
50100   0.77560    0.05307    0.07636    0.03314      0.60374      0.09286      0.04211      0.68735      0.09215      
50200   0.77545    0.05306    0.07634    0.03287      0.60391      0.09279      0.04196      0.68731      0.09060      
50300   0.77537    0.05306    0.07635    0.03267      0.60408      0.09215      0.04179      0.68770      0.09094      
50400   0.77530    0.05303    0.07634    0.03281      0.60391      0.09206      0.04198      0.68735      0.08936      
50500   0.77521    0.05305    0.07633    0.03289      0.60373      0.09219      0.04202      0.68744      0.09028      
50600   0.77512    0.05298    0.07629    0.03265      0.60402      0.09177      0.04172      0.68774      0.08894      
50700   0.77503    0.05292    0.07625    0.03266      0.60406      0.09138      0.04173      0.68786      0.08846      
50800   0.77501    0.05294    0.07626    0.03264      0.60406      0.09108      0.04175      0.68787      0.08843      
50900   0.77510    0.05296    0.07628    0.03269      0.60392      0.09252      0.04166      0.68793      0.09050      
51000   0.77493    0.05297    0.07624    0.03255      0.60380      0.09368      0.04161      0.68770      0.09270      
51100   0.77514    0.05300    0.07626    0.03272      0.60379      0.09370      0.04172      0.68771      0.09265      
51200   0.77515    0.05301    0.07623    0.03271      0.60397      0.09230      0.04172      0.68769      0.09051      
51300   0.77505    0.05304    0.07624    0.03287      0.60361      0.09292      0.04204      0.68729      0.09117      
51400   0.77488    0.05295    0.07615    0.03284      0.60368      0.09265      0.04215      0.68766      0.09172      
51500   0.77494    0.05293    0.07615    0.03271      0.60377      0.09388      0.04177      0.68770      0.09295      
51600   0.77490    0.05296    0.07618    0.03250      0.60396      0.09303      0.04161      0.68780      0.09079      
51700   0.77482    0.05297    0.07619    0.03273      0.60371      0.09230      0.04203      0.68753      0.09016      
51800   0.77463    0.05288    0.07614    0.03250      0.60374      0.09362      0.04163      0.68767      0.09285      
51900   0.77472    0.05287    0.07615    0.03292      0.60339      0.09393      0.04216      0.68698      0.09296      
52000   0.77470    0.05283    0.07611    0.03240      0.60399      0.09359      0.04156      0.68760      0.09271      
52100   0.77459    0.05283    0.07610    0.03256      0.60399      0.09111      0.04182      0.68789      0.08880      
52200   0.77452    0.05283    0.07610    0.03267      0.60375      0.09165      0.04187      0.68755      0.08954      
52300   0.77443    0.05276    0.07607    0.03290      0.60339      0.09304      0.04205      0.68715      0.09191      
52400   0.77422    0.05272    0.07604    0.03278      0.60355      0.09140      0.04200      0.68723      0.08938      
52500   0.77421    0.05270    0.07604    0.03284      0.60344      0.09190      0.04194      0.68709      0.08991      
52600   0.77416    0.05261    0.07600    0.03258      0.60375      0.09207      0.04177      0.68751      0.09108      
52700   0.77404    0.05265    0.07598    0.03256      0.60358      0.09262      0.04163      0.68709      0.09265      
52800   0.77401    0.05269    0.07600    0.03265      0.60338      0.09294      0.04168      0.68690      0.09258      
52900   0.77403    0.05271    0.07600    0.03282      0.60332      0.09175      0.04206      0.68663      0.09116      
53000   0.77419    0.05273    0.07604    0.03264      0.60353      0.09249      0.04182      0.68695      0.09195      
53100   0.77413    0.05273    0.07605    0.03255      0.60377      0.09036      0.04167      0.68730      0.09028      
53200   0.77427    0.05272    0.07602    0.03280      0.60357      0.09157      0.04188      0.68683      0.09185      
53300   0.77420    0.05274    0.07602    0.03271      0.60353      0.09206      0.04183      0.68719      0.09190      
53400   0.77424    0.05273    0.07600    0.03264      0.60372      0.09147      0.04183      0.68745      0.09224      
53500   0.77408    0.05266    0.07597    0.03253      0.60365      0.09265      0.04146      0.68737      0.09343      
53600   0.77387    0.05263    0.07594    0.03245      0.60367      0.09178      0.04154      0.68741      0.09138      
53700   0.77403    0.05268    0.07594    0.03281      0.60343      0.09166      0.04205      0.68693      0.09107      
53800   0.77388    0.05264    0.07589    0.03276      0.60335      0.09233      0.04191      0.68690      0.09272      
53900   0.77386    0.05264    0.07589    0.03281      0.60335      0.09170      0.04189      0.68684      0.09161      
54000   0.77379    0.05261    0.07586    0.03283      0.60317      0.09318      0.04189      0.68622      0.09371      
54100   0.77387    0.05260    0.07585    0.03306      0.60329      0.09081      0.04220      0.68654      0.08928      
54200   0.77366    0.05257    0.07583    0.03271      0.60329      0.09266      0.04174      0.68659      0.09272      
54300   0.77374    0.05254    0.07582    0.03299      0.60323      0.09151      0.04204      0.68654      0.09095      
54400   0.77348    0.05242    0.07579    0.03268      0.60332      0.09275      0.04179      0.68683      0.09277      
54500   0.77363    0.05238    0.07574    0.03276      0.60343      0.09311      0.04183      0.68668      0.09304      
54600   0.77350    0.05242    0.07576    0.03266      0.60352      0.09141      0.04174      0.68701      0.09087      
54700   0.77348    0.05241    0.07573    0.03241      0.60352      0.09410      0.04140      0.68726      0.09441      
54800   0.77350    0.05238    0.07571    0.03258      0.60363      0.09210      0.04163      0.68710      0.09311      
54900   0.77334    0.05232    0.07567    0.03263      0.60347      0.09252      0.04164      0.68691      0.09279      
55000   0.77318    0.05228    0.07565    0.03271      0.60345      0.09081      0.04162      0.68704      0.08980      
55100   0.77316    0.05226    0.07564    0.03247      0.60354      0.09241      0.04148      0.68724      0.09193      
55200   0.77314    0.05231    0.07562    0.03253      0.60341      0.09276      0.04167      0.68700      0.09281      
55300   0.77297    0.05226    0.07561    0.03286      0.60310      0.09143      0.04200      0.68646      0.09071      
55400   0.77288    0.05221    0.07558    0.03266      0.60324      0.09197      0.04170      0.68691      0.09201      
55500   0.77292    0.05222    0.07558    0.03281      0.60324      0.09078      0.04185      0.68675      0.09117      
55600   0.77276    0.05219    0.07557    0.03267      0.60323      0.09104      0.04184      0.68682      0.09083      
55700   0.77267    0.05213    0.07554    0.03259      0.60309      0.09322      0.04156      0.68666      0.09392      
55800   0.77275    0.05215    0.07552    0.03269      0.60323      0.09145      0.04172      0.68648      0.09184      
55900   0.77280    0.05219    0.07552    0.03246      0.60356      0.09063      0.04148      0.68703      0.08976      
56000   0.77266    0.05213    0.07547    0.03255      0.60339      0.09116      0.04166      0.68697      0.09073      
56100   0.77245    0.05210    0.07544    0.03241      0.60329      0.09212      0.04150      0.68684      0.09187      
56200   0.77255    0.05211    0.07544    0.03248      0.60321      0.09313      0.04145      0.68658      0.09354      
56300   0.77240    0.05210    0.07543    0.03255      0.60314      0.09177      0.04167      0.68642      0.09150      
56400   0.77234    0.05204    0.07539    0.03274      0.60304      0.09140      0.04174      0.68621      0.09148      
56500   0.77225    0.05204    0.07538    0.03269      0.60288      0.09265      0.04190      0.68625      0.09362      
56600   0.77220    0.05202    0.07534    0.03289      0.60278      0.09173      0.04201      0.68613      0.09187      
56700   0.77214    0.05198    0.07534    0.03267      0.60301      0.09139      0.04175      0.68668      0.09157      
56800   0.77214    0.05194    0.07531    0.03252      0.60307      0.09302      0.04158      0.68654      0.09427      
56900   0.77198    0.05189    0.07529    0.03241      0.60328      0.09104      0.04154      0.68691      0.09090      
57000   0.77201    0.05192    0.07527    0.03254      0.60312      0.09149      0.04173      0.68648      0.09104      
57100   0.77194    0.05191    0.07529    0.03280      0.60284      0.09109      0.04196      0.68657      0.09093      
57200   0.77185    0.05185    0.07527    0.03265      0.60296      0.09119      0.04170      0.68642      0.09030      
57300   0.77200    0.05189    0.07528    0.03249      0.60311      0.09235      0.04143      0.68670      0.09232      
57400   0.77172    0.05182    0.07523    0.03247      0.60311      0.09087      0.04171      0.68680      0.09138      
57500   0.77165    0.05181    0.07523    0.03241      0.60302      0.09176      0.04155      0.68686      0.09144      
57600   0.77166    0.05181    0.07521    0.03262      0.60292      0.09106      0.04164      0.68662      0.09222      
57700   0.77164    0.05181    0.07522    0.03247      0.60288      0.09255      0.04144      0.68652      0.09415      
57800   0.77161    0.05182    0.07522    0.03237      0.60306      0.09137      0.04135      0.68674      0.09235      
57900   0.77160    0.05179    0.07521    0.03246      0.60286      0.09287      0.04165      0.68635      0.09453      
58000   0.77155    0.05172    0.07517    0.03261      0.60292      0.09131      0.04170      0.68637      0.09131      
58100   0.77151    0.05176    0.07519    0.03261      0.60270      0.09262      0.04183      0.68620      0.09301      
58200   0.77150    0.05175    0.07518    0.03245      0.60296      0.09170      0.04157      0.68664      0.09265      
58300   0.77142    0.05172    0.07515    0.03256      0.60281      0.09189      0.04164      0.68659      0.09170      
58400   0.77143    0.05167    0.07511    0.03248      0.60291      0.09248      0.04143      0.68638      0.09308      
58500   0.77125    0.05158    0.07506    0.03259      0.60287      0.09152      0.04161      0.68645      0.09181      
58600   0.77126    0.05161    0.07505    0.03248      0.60304      0.09085      0.04162      0.68638      0.09048      
58700   0.77116    0.05158    0.07503    0.03270      0.60267      0.09171      0.04176      0.68592      0.09181      
58800   0.77114    0.05156    0.07502    0.03274      0.60279      0.09025      0.04186      0.68620      0.09107      
58900   0.77117    0.05156    0.07502    0.03272      0.60270      0.09177      0.04168      0.68595      0.09296      
59000   0.77107    0.05151    0.07500    0.03263      0.60276      0.09164      0.04178      0.68602      0.09258      
59100   0.77104    0.05147    0.07496    0.03243      0.60309      0.09082      0.04144      0.68645      0.09114      
59200   0.77099    0.05149    0.07497    0.03240      0.60300      0.09130      0.04155      0.68616      0.09263      
59300   0.77099    0.05151    0.07497    0.03257      0.60278      0.09161      0.04166      0.68628      0.09286      
59400   0.77088    0.05149    0.07495    0.03260      0.60275      0.09093      0.04166      0.68632      0.09113      
59500   0.77087    0.05147    0.07491    0.03261      0.60281      0.09062      0.04173      0.68633      0.09171      
59600   0.77068    0.05143    0.07489    0.03271      0.60246      0.09188      0.04181      0.68624      0.09516      
59700   0.77066    0.05141    0.07488    0.03254      0.60276      0.09077      0.04157      0.68633      0.09197      
59800   0.77048    0.05131    0.07484    0.03256      0.60269      0.09090      0.04154      0.68620      0.09139      
59900   0.77051    0.05127    0.07480    0.03268      0.60270      0.09061      0.04176      0.68607      0.09153      
60000   0.77041    0.05122    0.07478    0.03264      0.60255      0.09210      0.04155      0.68611      0.09430      
60100   0.77021    0.05118    0.07473    0.03262      0.60251      0.09164      0.04167      0.68595      0.09322      
60200   0.77021    0.05114    0.07471    0.03266      0.60257      0.09129      0.04171      0.68606      0.09305      
60300   0.77022    0.05115    0.07469    0.03269      0.60245      0.09236      0.04186      0.68602      0.09350      
60400   0.77029    0.05117    0.07469    0.03267      0.60269      0.09074      0.04187      0.68618      0.09054      
60500   0.77038    0.05121    0.07469    0.03245      0.60274      0.09296      0.04152      0.68658      0.09421      
60600   0.77040    0.05123    0.07471    0.03252      0.60276      0.09172      0.04165      0.68630      0.09199      
60700   0.77041    0.05122    0.07472    0.03253      0.60275      0.09189      0.04152      0.68618      0.09199      
60800   0.77041    0.05126    0.07472    0.03245      0.60277      0.09207      0.04162      0.68633      0.09177      
60900   0.77032    0.05121    0.07472    0.03241      0.60289      0.09086      0.04132      0.68660      0.09073      
61000   0.77028    0.05123    0.07472    0.03246      0.60281      0.09065      0.04156      0.68641      0.08996      
61100   0.77031    0.05121    0.07472    0.03243      0.60279      0.09164      0.04150      0.68633      0.09193      
61200   0.77039    0.05124    0.07473    0.03242      0.60286      0.09143      0.04140      0.68658      0.09300      
61300   0.77025    0.05121    0.07469    0.03254      0.60272      0.09080      0.04152      0.68620      0.08983      
61400   0.77005    0.05119    0.07468    0.03238      0.60259      0.09205      0.04150      0.68603      0.09304      
61500   0.77003    0.05117    0.07467    0.03235      0.60265      0.09195      0.04126      0.68612      0.09266      
61600   0.76993    0.05113    0.07464    0.03228      0.60260      0.09281      0.04128      0.68595      0.09365      
61700   0.76989    0.05115    0.07464    0.03259      0.60233      0.09183      0.04160      0.68577      0.09094      
61800   0.76977    0.05107    0.07458    0.03229      0.60277      0.09066      0.04139      0.68620      0.08942      
61900   0.76966    0.05107    0.07457    0.03245      0.60246      0.09122      0.04157      0.68568      0.09108      
62000   0.76964    0.05107    0.07458    0.03244      0.60238      0.09175      0.04151      0.68559      0.09190      
62100   0.76965    0.05108    0.07456    0.03254      0.60229      0.09174      0.04172      0.68527      0.09161      
62200   0.76960    0.05107    0.07455    0.03238      0.60233      0.09272      0.04138      0.68549      0.09296      
62300   0.76963    0.05110    0.07457    0.03239      0.60251      0.09066      0.04144      0.68583      0.08988      
62400   0.76973    0.05116    0.07460    0.03228      0.60251      0.09180      0.04133      0.68588      0.09150      
62500   0.76956    0.05109    0.07456    0.03249      0.60239      0.09022      0.04151      0.68568      0.08849      
62600   0.76956    0.05109    0.07454    0.03247      0.60236      0.09094      0.04145      0.68567      0.09086      
62700   0.76944    0.05101    0.07453    0.03219      0.60271      0.08999      0.04123      0.68609      0.08907      
[...]
76500   0.76343    0.04901    0.07256    0.03259      0.60033      0.08933      0.04191      0.68362      0.09023      
76600   0.76357    0.04904    0.07258    0.03236      0.60067      0.08914      0.04144      0.68413      0.08936      
76700   0.76354    0.04905    0.07257    0.03277      0.60027      0.08875      0.04188      0.68379      0.08880      
76800   0.76348    0.04905    0.07258    0.03247      0.60050      0.08877      0.04140      0.68416      0.08893      
76900   0.76356    0.04911    0.07259    0.03264      0.60022      0.08997      0.04178      0.68381      0.09053      
77000   0.76345    0.04906    0.07255    0.03233      0.60040      0.09105      0.04139      0.68395      0.09145      
77100   0.76351    0.04907    0.07254    0.03255      0.60024      0.09118      0.04165      0.68388      0.09062      
77200   0.76334    0.04901    0.07249    0.03224      0.60065      0.08950      0.04134      0.68451      0.08864      
77300   0.76325    0.04897    0.07248    0.03231      0.60048      0.09012      0.04136      0.68410      0.08974      
77400   0.76331    0.04893    0.07246    0.03248      0.60034      0.09101      0.04156      0.68390      0.09182      
77500   0.76327    0.04893    0.07245    0.03255      0.60034      0.09015      0.04166      0.68408      0.09050      
77600   0.76325    0.04892    0.07246    0.03237      0.60052      0.08983      0.04127      0.68440      0.09093      
77700   0.76314    0.04892    0.07244    0.03251      0.60043      0.08830      0.04159      0.68427      0.08767      
77800   0.76311    0.04885    0.07240    0.03261      0.60040      0.08857      0.04169      0.68426      0.08765      
77900   0.76319    0.04884    0.07241    0.03250      0.60040      0.09029      0.04148      0.68409      0.09032      
78000   0.76314    0.04886    0.07238    0.03261      0.60039      0.08902      0.04171      0.68407      0.08887      
78100   0.76306    0.04879    0.07233    0.03248      0.60057      0.08882      0.04149      0.68434      0.08922      
78200   0.76301    0.04881    0.07234    0.03270      0.60018      0.08982      0.04173      0.68387      0.08997      
78300   0.76295    0.04883    0.07235    0.03278      0.60005      0.08934      0.04181      0.68363      0.09009      
78400   0.76303    0.04883    0.07234    0.03242      0.60051      0.08930      0.04150      0.68421      0.08883      
78500   0.76291    0.04879    0.07232    0.03257      0.60017      0.09054      0.04162      0.68360      0.09097      
78600   0.76278    0.04876    0.07229    0.03249      0.60032      0.08911      0.04149      0.68387      0.08902      
78700   0.76275    0.04875    0.07228    0.03238      0.60046      0.08883      0.04138      0.68407      0.09001      
78800   0.76285    0.04874    0.07227    0.03260      0.60023      0.09003      0.04171      0.68377      0.09020      
78900   0.76262    0.04864    0.07221    0.03253      0.60011      0.09135      0.04154      0.68380      0.09223      
79000   0.76261    0.04870    0.07224    0.03250      0.60020      0.08977      0.04151      0.68374      0.08967      
79100   0.76259    0.04869    0.07221    0.03277      0.60011      0.08808      0.04190      0.68351      0.08754      
79200   0.76249    0.04868    0.07218    0.03246      0.60016      0.09006      0.04149      0.68379      0.09112      
79300   0.76246    0.04865    0.07215    0.03252      0.60016      0.08984      0.04156      0.68369      0.09023      
79400   0.76237    0.04860    0.07214    0.03246      0.60021      0.08965      0.04159      0.68360      0.08949      
79500   0.76242    0.04856    0.07211    0.03255      0.60015      0.09047      0.04175      0.68353      0.09036      
79600   0.76230    0.04850    0.07209    0.03279      0.59998      0.08946      0.04177      0.68333      0.09030      
79700   0.76222    0.04850    0.07208    0.03263      0.60015      0.08862      0.04170      0.68374      0.08807      
79800   0.76210    0.04847    0.07205    0.03248      0.60021      0.08896      0.04157      0.68366      0.08906      
79900   0.76218    0.04846    0.07207    0.03253      0.60022      0.08907      0.04162      0.68371      0.08884      
80000   0.76221    0.04846    0.07206    0.03227      0.60053      0.08890      0.04137      0.68406      0.08862      
80100   0.76211    0.04845    0.07205    0.03263      0.60004      0.08931      0.04172      0.68349      0.08885      
80200   0.76203    0.04843    0.07206    0.03236      0.60031      0.08867      0.04138      0.68370      0.08904      
80300   0.76200    0.04842    0.07204    0.03248      0.60006      0.08993      0.04167      0.68369      0.09006      
80400   0.76204    0.04844    0.07203    0.03258      0.60003      0.08977      0.04174      0.68357      0.09066      
80500   0.76202    0.04842    0.07200    0.03251      0.60001      0.09079      0.04157      0.68356      0.09122      
80600   0.76191    0.04838    0.07200    0.03257      0.60004      0.08925      0.04161      0.68360      0.08920      
80700   0.76180    0.04834    0.07197    0.03254      0.60017      0.08776      0.04149      0.68374      0.08749      
80800   0.76172    0.04829    0.07195    0.03256      0.59987      0.09047      0.04153      0.68335      0.09156      
80900   0.76177    0.04833    0.07197    0.03219      0.60033      0.08953      0.04117      0.68394      0.08890      
81000   0.76161    0.04829    0.07193    0.03258      0.59994      0.08876      0.04153      0.68354      0.08789      
81100   0.76165    0.04828    0.07192    0.03219      0.60016      0.09113      0.04118      0.68354      0.09168      
81200   0.76155    0.04827    0.07191    0.03228      0.60010      0.08997      0.04136      0.68367      0.09120      
81300   0.76144    0.04827    0.07190    0.03251      0.59984      0.08927      0.04161      0.68332      0.08916      
81400   0.76140    0.04820    0.07185    0.03245      0.60007      0.08833      0.04158      0.68364      0.08769      
81500   0.76136    0.04818    0.07184    0.03247      0.59985      0.09015      0.04166      0.68318      0.09057      
81600   0.76126    0.04818    0.07183    0.03243      0.59990      0.08924      0.04161      0.68332      0.08896      
81700   0.76133    0.04816    0.07181    0.03260      0.60001      0.08760      0.04160      0.68369      0.08600      
81800   0.76131    0.04810    0.07180    0.03241      0.60015      0.08847      0.04148      0.68366      0.08788      
81900   0.76123    0.04814    0.07181    0.03240      0.59997      0.08914      0.04144      0.68361      0.08860      
82000   0.76105    0.04807    0.07176    0.03234      0.59990      0.08977      0.04140      0.68346      0.08935      
82100   0.76107    0.04806    0.07173    0.03228      0.60019      0.08814      0.04137      0.68375      0.08740      
82200   0.76104    0.04804    0.07173    0.03234      0.59984      0.09079      0.04131      0.68338      0.09162      
82300   0.76107    0.04804    0.07171    0.03253      0.59988      0.08901      0.04163      0.68331      0.08872      
82400   0.76111    0.04811    0.07174    0.03227      0.60011      0.08887      0.04139      0.68396      0.08862      
82500   0.76112    0.04810    0.07171    0.03251      0.59996      0.08837      0.04158      0.68370      0.08797      
82600   0.76106    0.04808    0.07169    0.03252      0.59992      0.08850      0.04163      0.68363      0.08874      
82700   0.76103    0.04810    0.07169    0.03213      0.60031      0.08804      0.04125      0.68430      0.08726      
82800   0.76103    0.04807    0.07166    0.03235      0.60002      0.08939      0.04156      0.68368      0.08940      
82900   0.76096    0.04803    0.07164    0.03258      0.59977      0.08945      0.04173      0.68340      0.09058      
83000   0.76096    0.04802    0.07163    0.03254      0.59991      0.08851      0.04150      0.68348      0.08872      
83100   0.76089    0.04801    0.07162    0.03228      0.60016      0.08821      0.04132      0.68398      0.08863      
83200   0.76083    0.04801    0.07161    0.03251      0.59983      0.08867      0.04167      0.68341      0.08912      
83300   0.76077    0.04797    0.07158    0.03247      0.59989      0.08865      0.04151      0.68371      0.08951      
83400   0.76072    0.04793    0.07155    0.03246      0.59990      0.08874      0.04140      0.68358      0.08948      
83500   0.76075    0.04801    0.07158    0.03239      0.59982      0.08958      0.04138      0.68343      0.09072      
83600   0.76068    0.04796    0.07156    0.03232      0.60002      0.08807      0.04148      0.68390      0.08852      
83700   0.76065    0.04796    0.07156    0.03230      0.60004      0.08797      0.04125      0.68385      0.08832      
83800   0.76058    0.04797    0.07156    0.03271      0.59962      0.08727      0.04186      0.68336      0.08759      
83900   0.76058    0.04797    0.07155    0.03258      0.59956      0.08917      0.04159      0.68321      0.09015      
84000   0.76051    0.04791    0.07153    0.03241      0.59995      0.08709      0.04161      0.68369      0.08723      
84100   0.76047    0.04793    0.07152    0.03242      0.59966      0.08941      0.04152      0.68308      0.09021      
84200   0.76046    0.04791    0.07148    0.03248      0.59967      0.08922      0.04158      0.68308      0.09039      
84300   0.76041    0.04791    0.07146    0.03238      0.59982      0.08842      0.04162      0.68327      0.08979      
84400   0.76032    0.04786    0.07143    0.03243      0.59975      0.08843      0.04147      0.68315      0.08957      
84500   0.76030    0.04780    0.07139    0.03231      0.60008      0.08719      0.04143      0.68360      0.08715      
84600   0.76033    0.04781    0.07139    0.03227      0.60014      0.08708      0.04137      0.68382      0.08756      
84700   0.76030    0.04784    0.07142    0.03220      0.60002      0.08814      0.04134      0.68352      0.08909      
84800   0.76028    0.04781    0.07140    0.03219      0.60002      0.08857      0.04127      0.68344      0.09013      
84900   0.76023    0.04783    0.07141    0.03234      0.59988      0.08765      0.04147      0.68360      0.08902      
85000   0.76017    0.04780    0.07138    0.03234      0.59976      0.08895      0.04138      0.68340      0.09037      
85100   0.76016    0.04774    0.07136    0.03233      0.59986      0.08866      0.04138      0.68360      0.08847      
85200   0.76006    0.04773    0.07133    0.03222      0.59990      0.08880      0.04137      0.68350      0.08874      
85300   0.75999    0.04767    0.07130    0.03253      0.59973      0.08771      0.04154      0.68332      0.08717      
85400   0.75992    0.04764    0.07128    0.03226      0.59976      0.08982      0.04134      0.68333      0.09058      
85500   0.75985    0.04766    0.07131    0.03243      0.59961      0.08833      0.04153      0.68306      0.08867      
85600   0.75986    0.04769    0.07131    0.03236      0.59953      0.08977      0.04146      0.68320      0.09050      
85700   0.75983    0.04770    0.07132    0.03234      0.59965      0.08823      0.04146      0.68344      0.08825      
85800   0.75981    0.04766    0.07131    0.03248      0.59942      0.08934      0.04162      0.68303      0.09065      
85900   0.75968    0.04762    0.07128    0.03231      0.59966      0.08817      0.04147      0.68332      0.08905      
86000   0.75992    0.04768    0.07129    0.03234      0.59966      0.08951      0.04144      0.68311      0.09026      
86100   0.75979    0.04769    0.07128    0.03262      0.59941      0.08796      0.04186      0.68277      0.08880      
86200   0.75974    0.04770    0.07127    0.03224      0.59964      0.08885      0.04141      0.68316      0.08938      
86300   0.75979    0.04771    0.07127    0.03239      0.59956      0.08868      0.04156      0.68302      0.08954      
86400   0.75976    0.04767    0.07125    0.03222      0.59968      0.08951      0.04135      0.68315      0.09058      
86500   0.75974    0.04762    0.07122    0.03254      0.59947      0.08887      0.04169      0.68288      0.09026      
86600   0.75969    0.04759    0.07120    0.03220      0.59988      0.08817      0.04119      0.68330      0.08917      
86700   0.75951    0.04756    0.07118    0.03223      0.59954      0.09007      0.04132      0.68306      0.09137      
86800   0.75948    0.04754    0.07117    0.03217      0.59977      0.08837      0.04117      0.68323      0.09019      
86900   0.75947    0.04750    0.07114    0.03234      0.59949      0.09001      0.04146      0.68293      0.09158      
87000   0.75953    0.04755    0.07113    0.03219      0.59987      0.08781      0.04128      0.68351      0.08938      
87100   0.75947    0.04752    0.07110    0.03249      0.59954      0.08823      0.04168      0.68286      0.08939      
87200   0.75948    0.04750    0.07109    0.03235      0.59963      0.08907      0.04125      0.68302      0.08990      
87300   0.75931    0.04747    0.07109    0.03223      0.59957      0.08940      0.04126      0.68305      0.09123      
87400   0.75924    0.04743    0.07104    0.03232      0.59960      0.08849      0.04141      0.68304      0.08885      
87500   0.75917    0.04739    0.07102    0.03214      0.59986      0.08761      0.04111      0.68342      0.08908      
87600   0.75918    0.04736    0.07099    0.03246      0.59948      0.08897      0.04156      0.68291      0.09121      
87700   0.75908    0.04733    0.07097    0.03213      0.59971      0.08948      0.04109      0.68327      0.09195      
87800   0.75914    0.04736    0.07096    0.03229      0.59970      0.08833      0.04128      0.68351      0.08966      
87900   0.75903    0.04733    0.07094    0.03213      0.59982      0.08803      0.04127      0.68338      0.08925      
88000   0.75904    0.04731    0.07092    0.03218      0.59969      0.08940      0.04124      0.68335      0.08984      
88100   0.75903    0.04729    0.07091    0.03235      0.59964      0.08837      0.04146      0.68329      0.08854      
88200   0.75895    0.04729    0.07091    0.03235      0.59946      0.08936      0.04145      0.68303      0.08914      
88300   0.75896    0.04734    0.07093    0.03217      0.59968      0.08846      0.04125      0.68319      0.08932      
88400   0.75894    0.04734    0.07093    0.03218      0.59957      0.08926      0.04122      0.68312      0.09098      
88500   0.75893    0.04731    0.07091    0.03247      0.59939      0.08848      0.04153      0.68288      0.08971      
88600   0.75883    0.04729    0.07089    0.03236      0.59938      0.08914      0.04143      0.68286      0.09068      
88700   0.75892    0.04731    0.07090    0.03225      0.59961      0.08848      0.04132      0.68300      0.08941      
88800   0.75898    0.04735    0.07090    0.03228      0.59956      0.08893      0.04145      0.68274      0.08993      
88900   0.75885    0.04726    0.07087    0.03230      0.59963      0.08792      0.04131      0.68300      0.08822      
89000   0.75879    0.04727    0.07089    0.03219      0.59962      0.08828      0.04133      0.68304      0.08874      
89100   0.75870    0.04724    0.07086    0.03213      0.59947      0.08989      0.04122      0.68281      0.09026      
89200   0.75872    0.04729    0.07087    0.03230      0.59937      0.08890      0.04145      0.68264      0.08922      
89300   0.75872    0.04725    0.07084    0.03232      0.59938      0.08923      0.04139      0.68282      0.09045      
89400   0.75857    0.04719    0.07080    0.03227      0.59951      0.08791      0.04130      0.68307      0.08818      
89500   0.75861    0.04718    0.07080    0.03220      0.59956      0.08862      0.04118      0.68308      0.08962      
89600   0.75851    0.04717    0.07077    0.03214      0.59956      0.08868      0.04122      0.68302      0.08918      
89700   0.75850    0.04715    0.07075    0.03237      0.59935      0.08892      0.04138      0.68285      0.08987      
89800   0.75842    0.04712    0.07074    0.03220      0.59947      0.08886      0.04115      0.68292      0.08967      
89900   0.75838    0.04712    0.07073    0.03212      0.59945      0.08948      0.04116      0.68310      0.09056      
90000   0.75831    0.04711    0.07074    0.03230      0.59942      0.08744      0.04136      0.68305      0.08720      
90100   0.75828    0.04708    0.07072    0.03202      0.59949      0.08976      0.04100      0.68318      0.09066      
90200   0.75830    0.04712    0.07072    0.03237      0.59928      0.08805      0.04139      0.68298      0.08776      
90300   0.75818    0.04708    0.07071    0.03225      0.59919      0.08954      0.04128      0.68279      0.09039      
90400   0.75832    0.04706    0.07070    0.03227      0.59929      0.08995      0.04128      0.68277      0.09053      
90500   0.75819    0.04707    0.07069    0.03235      0.59929      0.08786      0.04125      0.68289      0.08878      
90600   0.75815    0.04703    0.07067    0.03224      0.59925      0.08959      0.04134      0.68299      0.09052      
90700   0.75810    0.04707    0.07066    0.03220      0.59930      0.08879      0.04128      0.68298      0.08932      
90800   0.75815    0.04707    0.07068    0.03214      0.59942      0.08840      0.04108      0.68306      0.08910      
90900   0.75811    0.04708    0.07067    0.03229      0.59927      0.08804      0.04143      0.68299      0.08920      
91000   0.75804    0.04704    0.07066    0.03220      0.59933      0.08816      0.04125      0.68319      0.08842      
91100   0.75806    0.04700    0.07062    0.03215      0.59928      0.09002      0.04122      0.68282      0.09173      
91200   0.75799    0.04700    0.07063    0.03222      0.59936      0.08789      0.04117      0.68296      0.08883      
91300   0.75798    0.04700    0.07061    0.03209      0.59939      0.08890      0.04106      0.68306      0.08980      
91400   0.75794    0.04700    0.07059    0.03213      0.59934      0.08883      0.04118      0.68290      0.08946      
91500   0.75794    0.04696    0.07057    0.03231      0.59926      0.08843      0.04133      0.68267      0.08867      
91600   0.75793    0.04698    0.07056    0.03228      0.59920      0.08915      0.04141      0.68270      0.08933      
91700   0.75784    0.04696    0.07056    0.03232      0.59911      0.08876      0.04138      0.68262      0.08860      
91800   0.75772    0.04691    0.07054    0.03244      0.59898      0.08847      0.04148      0.68227      0.08859      
91900   0.75773    0.04691    0.07050    0.03221      0.59921      0.08905      0.04115      0.68247      0.08998      
92000   0.75765    0.04688    0.07049    0.03210      0.59926      0.08915      0.04098      0.68264      0.08945      
92100   0.75749    0.04687    0.07046    0.03214      0.59915      0.08867      0.04117      0.68239      0.08865      
92200   0.75756    0.04688    0.07047    0.03229      0.59893      0.09000      0.04125      0.68246      0.09103      
92300   0.75754    0.04688    0.07046    0.03211      0.59913      0.08954      0.04118      0.68230      0.08932      
92400   0.75753    0.04685    0.07045    0.03215      0.59932      0.08754      0.04122      0.68269      0.08649      
92500   0.75745    0.04683    0.07045    0.03225      0.59909      0.08836      0.04127      0.68227      0.08782      
92600   0.75738    0.04680    0.07042    0.03206      0.59935      0.08752      0.04109      0.68269      0.08683      
92700   0.75729    0.04677    0.07042    0.03231      0.59890      0.08889      0.04136      0.68210      0.08889      
92800   0.75726    0.04674    0.07040    0.03214      0.59917      0.08804      0.04115      0.68249      0.08718      
srun: Job step aborted: Waiting up to 32 seconds for job step to finish.
slurmstepd: error: *** STEP 6396655.0 ON gpu16 CANCELLED AT 2025-03-27T12:06:12 DUE TO TIME LIMIT ***
slurmstepd: error: *** JOB 6396655 ON gpu16 CANCELLED AT 2025-03-27T12:06:12 DUE TO TIME LIMIT ***
