
***************************************************************
*                 Welcome to use GPUMD                        *
*    (Graphics Processing Units Molecular Dynamics)           *
*              Master version after 3.9.5                     *
*              This is the nep executable                     *
***************************************************************


---------------------------------------------------------------
GPU information:
---------------------------------------------------------------

number of GPUs = 1
Device id:                   0
    Device name:             NVIDIA A100-SXM4-80GB
    Compute capability:      8.0
    Amount of global memory: 79.2537 GB
    Number of SMs:           108

---------------------------------------------------------------
Started running nep.
---------------------------------------------------------------


---------------------------------------------------------------
Started reading nep.in.
---------------------------------------------------------------

Input or default parameters:
    (default) model_type = potential.
    (default) calculation mode = train.
    (default) use NEP version 4.
    (input)   number of atom types = 1.
        (default) type 0 (C with Z = 6) has force weight of 1.
    (default) will not add the ZBL potential.
    (input)   radial cutoff = 4.2 A.
    (input)   angular cutoff = 3.7 A.
    (default) use global cutoff for NEP.
    (default) use global cutoff for ZBL.
    (input)   n_max_radial = 10.
    (input)   n_max_angular = 15.
    (input)   basis_size_radial = 10.
    (input)   basis_size_angular = 15.
    (input)   l_max_3body = 4.
    (input)   l_max_4body = 2.
    (input)   l_max_5body = 1.
    (input)   number of neurons = 100.
    (input)   lambda_1 = 0.05.
    (input)   lambda_2 = 0.05.
    (input)   lambda_e = 1.
    (input)   lambda_f = 1.
    (input)   lambda_v = 0.1.
    (default) lambda_shear = 1.
    (default) force_delta = 0.
    (input)   batch size = 100000.
    (input)   population size = 50.
    (input)   maximum number of generations = 500000.
Some calculated parameters:
    number of radial descriptor components = 11.
    number of angular descriptor components = 96.
    total number of descriptor components = 107.
    NN architecture = 107-100-1.
    number of NN parameters to be optimized = 10901.
    number of descriptor parameters to be optimized = 377.
    total number of parameters to be optimized = 11278.

---------------------------------------------------------------
Finished reading nep.in.
---------------------------------------------------------------


---------------------------------------------------------------
Started reading train.xyz
---------------------------------------------------------------

Number of configurations = 6738.
Number of devices = 1
Number of batches = 1
Hello, I changed the batch_size from 100000 to 6738.

Batch 0:
Number of configurations = 6738.

---------------------------------------------------------------
Constructing train_set in device  0.
Total number of atoms = 379404.
Number of atoms in the largest configuration = 512.
Number of configurations having virial = 6018.
Radial descriptor with a cutoff of 4.2 A:
    Minimum number of neighbors for one atom = 0.
    Maximum number of neighbors for one atom = 98.
Angular descriptor with a cutoff of 3.7 A:
    Minimum number of neighbors for one atom = 0.
    Maximum number of neighbors for one atom = 56.
---------------------------------------------------------------


---------------------------------------------------------------
Started reading test.xyz
---------------------------------------------------------------

Number of configurations = 450.

---------------------------------------------------------------
Constructing test_set in device  0.
Total number of atoms = 28337.
Number of atoms in the largest configuration = 216.
Number of configurations having virial = 450.
Radial descriptor with a cutoff of 4.2 A:
    Minimum number of neighbors for one atom = 5.
    Maximum number of neighbors for one atom = 78.
Angular descriptor with a cutoff of 3.7 A:
    Minimum number of neighbors for one atom = 4.
    Maximum number of neighbors for one atom = 46.
---------------------------------------------------------------


---------------------------------------------------------------
Time used for initialization = 2.270062 s.
---------------------------------------------------------------


---------------------------------------------------------------
Started training.
---------------------------------------------------------------

Step    Total-Loss L1Reg-Loss L2Reg-Loss RMSE-E-Train RMSE-F-Train RMSE-V-Train RMSE-E-Test  RMSE-F-Test  RMSE-V-Test  
100     1.92568    0.02654    0.03137    0.36840      1.40831      0.91047      0.15700      1.54666      0.57024      
200     1.66469    0.02782    0.03336    0.27652      1.25240      0.74594      0.17155      1.35615      0.35871      
300     1.58503    0.02906    0.03511    0.21077      1.23801      0.72079      0.13607      1.34052      0.39164      
400     1.56730    0.03013    0.03664    0.22401      1.20937      0.67145      0.18661      1.27626      0.31066      
500     1.50691    0.03100    0.03799    0.19735      1.17684      0.63731      0.15581      1.27229      0.31397      
600     1.52039    0.03212    0.03953    0.18339      1.20055      0.64789      0.15066      1.29794      0.33934      
700     1.49358    0.03318    0.04093    0.16745      1.19123      0.60789      0.12169      1.29951      0.30867      
800     1.44932    0.03412    0.04222    0.19011      1.12325      0.59623      0.16354      1.20967      0.28659      
900     1.43283    0.03491    0.04334    0.14524      1.15336      0.55979      0.10078      1.24561      0.26751      
1000    1.38275    0.03577    0.04454    0.14935      1.09418      0.58907      0.12555      1.18407      0.31450      
1100    1.37559    0.03686    0.04589    0.14926      1.08956      0.54032      0.12346      1.17715      0.29303      
1200    1.35647    0.03779    0.04708    0.11633      1.10320      0.52067      0.09294      1.20677      0.38021      
1300    1.34344    0.03858    0.04818    0.14087      1.06823      0.47583      0.13198      1.16629      0.27931      
1400    1.31837    0.03940    0.04924    0.13053      1.04958      0.49622      0.09359      1.14899      0.32881      
1500    1.28215    0.03993    0.05002    0.12201      1.02005      0.50146      0.09343      1.11977      0.32162      
1600    1.30336    0.04074    0.05091    0.11722      1.04665      0.47851      0.08518      1.14171      0.21855      
1700    1.26805    0.04150    0.05190    0.11136      1.01635      0.46946      0.11264      1.11448      0.35881      
1800    1.24892    0.04228    0.05275    0.10450      0.98989      0.59500      0.09715      1.09270      0.41324      
1900    1.24291    0.04283    0.05346    0.12297      0.97694      0.46709      0.10441      1.07405      0.29977      
2000    1.22124    0.04354    0.05435    0.09635      0.98049      0.46510      0.09241      1.07539      0.32560      
2100    1.25208    0.04433    0.05530    0.11065      0.98561      0.56199      0.10711      1.07301      0.32747      
2200    1.23887    0.04487    0.05606    0.10507      0.99045      0.42423      0.09455      1.08176      0.35689      
2300    1.24038    0.04551    0.05690    0.10158      0.99556      0.40824      0.08910      1.10029      0.24004      
2400    1.25317    0.04602    0.05763    0.10155      1.00835      0.39623      0.10820      1.10381      0.24088      
2500    1.23749    0.04660    0.05840    0.11181      0.97394      0.46749      0.10575      1.07542      0.25596      
2600    1.21735    0.04729    0.05923    0.09450      0.97264      0.43696      0.09421      1.08014      0.28839      
2700    1.19828    0.04793    0.06001    0.08569      0.96686      0.37787      0.08575      1.07425      0.22813      
2800    1.20392    0.04851    0.06072    0.09742      0.95892      0.38346      0.09206      1.06525      0.27151      
2900    1.21381    0.04921    0.06160    0.10854      0.95307      0.41384      0.11618      1.05741      0.30102      
3000    1.19324    0.04981    0.06230    0.08143      0.96391      0.35787      0.07270      1.06483      0.24711      
3100    1.19468    0.05047    0.06322    0.10537      0.94122      0.34397      0.09708      1.04281      0.23661      
3200    1.18086    0.05090    0.06380    0.09553      0.93292      0.37708      0.09731      1.03597      0.32711      
3300    1.18999    0.05151    0.06450    0.08852      0.94671      0.38749      0.08433      1.04682      0.33290      
3400    1.18721    0.05206    0.06518    0.09787      0.93452      0.37584      0.09600      1.03638      0.27418      
3500    1.19423    0.05272    0.06595    0.08749      0.95330      0.34779      0.09752      1.04761      0.19817      
3600    1.18678    0.05311    0.06657    0.10482      0.93232      0.29968      0.09694      1.03080      0.24021      
3700    1.17046    0.05367    0.06720    0.08846      0.93134      0.29797      0.08151      1.02910      0.22367      
3800    1.15787    0.05411    0.06777    0.08477      0.91802      0.33197      0.08360      1.01943      0.26098      
3900    1.16323    0.05459    0.06838    0.10577      0.90473      0.29748      0.10719      1.00517      0.17903      
4000    1.14220    0.05529    0.06921    0.08021      0.90238      0.35112      0.08468      1.00648      0.32689      
4100    1.14761    0.05582    0.06988    0.09423      0.89475      0.32922      0.08604      0.99435      0.29822      
4200    1.13147    0.05600    0.07032    0.07875      0.89610      0.30304      0.07450      0.99760      0.20374      
4300    1.12798    0.05643    0.07092    0.09082      0.88361      0.26194      0.09209      0.98009      0.19126      
4400    1.13745    0.05692    0.07156    0.08099      0.90130      0.26684      0.08619      1.00265      0.15503      
4500    1.14112    0.05742    0.07212    0.08870      0.89557      0.27309      0.08397      1.00343      0.21175      
4600    1.14034    0.05777    0.07256    0.09787      0.87919      0.32945      0.09393      0.98112      0.21003      
4700    1.11947    0.05814    0.07301    0.08067      0.87886      0.28787      0.08314      0.97664      0.18324      
4800    1.12503    0.05850    0.07345    0.08637      0.87765      0.29053      0.08413      0.97783      0.20422      
4900    1.12290    0.05908    0.07409    0.08008      0.87993      0.29732      0.07332      0.98627      0.19021      
5000    1.12188    0.05934    0.07451    0.07773      0.87779      0.32506      0.06865      0.97474      0.24203      
5100    1.12831    0.05984    0.07502    0.07616      0.88827      0.29033      0.07781      0.98253      0.26531      
5200    1.12575    0.06019    0.07552    0.08288      0.87241      0.34748      0.08004      0.97121      0.23691      
5300    1.12519    0.06072    0.07613    0.08858      0.87313      0.26637      0.09236      0.97140      0.16745      
5400    1.11423    0.06111    0.07669    0.08612      0.86473      0.25588      0.09094      0.96384      0.21248      
5500    1.12139    0.06148    0.07709    0.08763      0.86729      0.27904      0.09149      0.95510      0.22539      
5600    1.11498    0.06190    0.07759    0.07695      0.86656      0.31972      0.07070      0.95863      0.25236      
5700    1.11575    0.06224    0.07805    0.08701      0.85375      0.34694      0.07991      0.94484      0.29964      
5800    1.10469    0.06272    0.07866    0.06940      0.85806      0.35838      0.07582      0.94868      0.34857      
5900    1.10179    0.06302    0.07907    0.08049      0.85135      0.27850      0.08232      0.94139      0.25177      
6000    1.08842    0.06325    0.07945    0.07570      0.84073      0.29289      0.08265      0.93279      0.27750      
6100    1.08367    0.06396    0.08027    0.07671      0.83454      0.28182      0.07578      0.93096      0.24846      
6200    1.08745    0.06426    0.08058    0.07114      0.84836      0.23112      0.06737      0.94952      0.15476      
6300    1.08103    0.06474    0.08111    0.07606      0.83434      0.24769      0.06709      0.92413      0.19332      
6400    1.08395    0.06524    0.08174    0.06886      0.83908      0.29032      0.06558      0.93520      0.28040      
6500    1.07842    0.06552    0.08213    0.07230      0.82530      0.33163      0.07267      0.91782      0.29968      
6600    1.08581    0.06588    0.08254    0.07391      0.83303      0.30438      0.07461      0.92825      0.25739      
6700    1.07946    0.06629    0.08308    0.07112      0.83633      0.22639      0.07353      0.93300      0.19099      
6800    1.07826    0.06655    0.08343    0.07565      0.82694      0.25687      0.08056      0.92328      0.17509      
6900    1.07519    0.06686    0.08388    0.06947      0.82736      0.27614      0.06493      0.92216      0.25350      
7000    1.06974    0.06735    0.08436    0.08070      0.80995      0.27378      0.08254      0.90066      0.26662      
7100    1.06743    0.06776    0.08492    0.06841      0.82434      0.21998      0.06907      0.91976      0.18823      
7200    1.07489    0.06809    0.08535    0.06736      0.82723      0.26864      0.07172      0.92084      0.25846      
7300    1.07065    0.06847    0.08577    0.07831      0.81344      0.24667      0.07760      0.90553      0.23057      
7400    1.06688    0.06868    0.08615    0.06362      0.82574      0.22673      0.06328      0.92140      0.17309      
7500    1.06043    0.06903    0.08652    0.06970      0.81228      0.22908      0.07603      0.90494      0.17333      
7600    1.06261    0.06935    0.08708    0.06485      0.81560      0.25734      0.06348      0.90672      0.24029      
7700    1.06036    0.06967    0.08745    0.06685      0.81487      0.21511      0.07015      0.90446      0.16867      
7800    1.05178    0.07005    0.08795    0.06453      0.80527      0.23974      0.06673      0.89655      0.24123      
7900    1.05604    0.07037    0.08837    0.06886      0.80370      0.24744      0.06386      0.88734      0.20911      
8000    1.04875    0.07063    0.08881    0.06627      0.79887      0.24164      0.06740      0.88794      0.18583      
8100    1.04616    0.07093    0.08916    0.06812      0.79575      0.22207      0.06171      0.89060      0.18315      
8200    1.04166    0.07123    0.08954    0.06287      0.79150      0.26522      0.06454      0.88243      0.19922      
8300    1.04045    0.07161    0.08997    0.07140      0.78072      0.26755      0.07218      0.86918      0.25063      
8400    1.03993    0.07202    0.09051    0.06482      0.78394      0.28642      0.06314      0.87648      0.25020      
8500    1.04230    0.07226    0.09086    0.06531      0.79033      0.23541      0.07043      0.87521      0.20282      
8600    1.04176    0.07253    0.09123    0.06227      0.79234      0.23394      0.06216      0.88344      0.19713      
8700    1.04816    0.07272    0.09151    0.06534      0.79389      0.24704      0.06722      0.87861      0.17255      
8800    1.04477    0.07300    0.09197    0.06593      0.79341      0.20464      0.06676      0.87847      0.17437      
8900    1.04613    0.07315    0.09221    0.06951      0.79042      0.20838      0.06849      0.87521      0.15472      
9000    1.03770    0.07336    0.09246    0.06675      0.78041      0.24720      0.06142      0.86741      0.21439      
9100    1.03590    0.07360    0.09280    0.06463      0.77993      0.24947      0.06517      0.86923      0.21007      
9200    1.04318    0.07393    0.09325    0.06853      0.78107      0.26397      0.06415      0.87034      0.21179      
9300    1.02964    0.07439    0.09381    0.06315      0.77631      0.21980      0.07159      0.86767      0.17856      
9400    1.03188    0.07453    0.09406    0.06610      0.77730      0.19887      0.07536      0.86703      0.14598      
9500    1.03262    0.07486    0.09446    0.06247      0.78027      0.20561      0.06247      0.87257      0.14871      
9600    1.02989    0.07524    0.09493    0.05710      0.77946      0.23166      0.06011      0.86273      0.18100      
9700    1.02908    0.07550    0.09529    0.05851      0.77697      0.22805      0.06151      0.86801      0.17313      
9800    1.03475    0.07585    0.09571    0.06816      0.77508      0.19959      0.06902      0.86609      0.16711      
9900    1.03327    0.07597    0.09591    0.05701      0.77876      0.25637      0.06194      0.86253      0.21250      
10000   1.03087    0.07624    0.09620    0.06331      0.77282      0.22294      0.06765      0.86277      0.19637      
10100   1.03265    0.07665    0.09665    0.06098      0.77766      0.20705      0.06628      0.86512      0.16534      
10200   1.03253    0.07688    0.09696    0.06212      0.77452      0.22045      0.07151      0.85967      0.18116      
10300   1.02789    0.07705    0.09728    0.06060      0.76842      0.24529      0.06341      0.85584      0.17745      
10400   1.02666    0.07732    0.09767    0.05887      0.76987      0.22936      0.06096      0.86051      0.22061      
10500   1.02589    0.07758    0.09797    0.05568      0.77030      0.24356      0.05985      0.85968      0.23103      
10600   1.02049    0.07770    0.09819    0.05444      0.76765      0.22504      0.05992      0.85829      0.19027      
10700   1.01590    0.07796    0.09856    0.05656      0.76270      0.20113      0.05818      0.85135      0.15061      
10800   1.01269    0.07809    0.09870    0.05762      0.75654      0.21725      0.06087      0.84129      0.17682      
10900   1.01734    0.07850    0.09908    0.05886      0.75635      0.24543      0.05810      0.84382      0.19167      
11000   1.01466    0.07873    0.09945    0.06070      0.75476      0.21014      0.06764      0.84192      0.17462      
11100   1.01631    0.07891    0.09974    0.05697      0.75731      0.23388      0.06297      0.84392      0.20030      
11200   1.01372    0.07910    0.09989    0.05789      0.75534      0.21495      0.06485      0.84638      0.17337      
11300   1.01591    0.07930    0.10016    0.05920      0.75636      0.20891      0.06377      0.84633      0.15716      
11400   1.01307    0.07955    0.10048    0.05942      0.75393      0.19692      0.06720      0.84270      0.14584      
11500   1.01336    0.07981    0.10080    0.05589      0.75702      0.19836      0.06183      0.84592      0.13947      
11600   1.00887    0.08015    0.10124    0.05866      0.74888      0.19951      0.06341      0.83732      0.15957      
11700   1.01387    0.08044    0.10164    0.06053      0.74905      0.22214      0.06823      0.83756      0.18673      
11800   1.01209    0.08073    0.10190    0.05602      0.75308      0.20366      0.06170      0.84300      0.18727      
11900   1.01044    0.08103    0.10230    0.05958      0.74585      0.21679      0.06134      0.82941      0.18302      
12000   1.00674    0.08128    0.10257    0.05525      0.74696      0.20677      0.05988      0.83465      0.16520      
12100   1.00993    0.08141    0.10276    0.05800      0.74541      0.22347      0.06501      0.82977      0.18437      
12200   1.01167    0.08164    0.10301    0.05656      0.74662      0.23841      0.06253      0.83509      0.20237      
12300   1.00852    0.08183    0.10325    0.05677      0.74713      0.19536      0.06144      0.83359      0.13171      
12400   1.00270    0.08199    0.10353    0.05301      0.74301      0.21154      0.06002      0.83229      0.18858      
12500   1.01261    0.08212    0.10370    0.05401      0.74689      0.25894      0.06080      0.83589      0.21744      
12600   1.00462    0.08235    0.10397    0.05423      0.74217      0.21905      0.05970      0.82927      0.18736      
12700   1.00263    0.08270    0.10435    0.05508      0.73953      0.20969      0.06139      0.82605      0.16609      
12800   1.00366    0.08289    0.10464    0.05622      0.74024      0.19670      0.06352      0.82927      0.13425      
12900   1.00192    0.08307    0.10493    0.05320      0.73993      0.20790      0.05882      0.82845      0.15367      
13000   1.00357    0.08328    0.10519    0.05447      0.73987      0.20764      0.05759      0.82967      0.18070      
13100   1.00461    0.08328    0.10524    0.05798      0.73639      0.21705      0.06464      0.82551      0.19698      
13200   1.00380    0.08357    0.10560    0.05347      0.73907      0.22102      0.05729      0.82677      0.19945      
13300   1.00288    0.08379    0.10585    0.05186      0.74150      0.19878      0.05761      0.82927      0.16324      
13400   1.00370    0.08402    0.10617    0.05236      0.74159      0.19560      0.05784      0.83081      0.14681      
13500   1.00389    0.08438    0.10670    0.05760      0.73537      0.19847      0.06706      0.82539      0.16769      
13600   0.99859    0.08449    0.10689    0.05589      0.73196      0.19341      0.06199      0.81610      0.16916      
13700   0.99959    0.08473    0.10718    0.05123      0.73405      0.22397      0.05843      0.81805      0.20931      
13800   0.99807    0.08487    0.10732    0.05298      0.73475      0.18152      0.05907      0.82162      0.12921      
13900   0.99691    0.08528    0.10779    0.05488      0.72910      0.19867      0.06127      0.81554      0.16565      
14000   0.99951    0.08539    0.10792    0.04874      0.73464      0.22813      0.05454      0.82575      0.20634      
14100   0.99712    0.08553    0.10827    0.04972      0.73465      0.18947      0.05652      0.82195      0.15812      
14200   0.99815    0.08568    0.10859    0.05025      0.73487      0.18767      0.05584      0.82350      0.14689      
14300   0.99666    0.08586    0.10889    0.05304      0.72708      0.21797      0.05717      0.81386      0.21195      
14400   0.99531    0.08616    0.10926    0.05227      0.72777      0.19850      0.05614      0.81423      0.17594      
14500   0.99395    0.08629    0.10940    0.05511      0.72506      0.18097      0.06380      0.81322      0.14155      
14600   0.99712    0.08653    0.10963    0.05263      0.73116      0.17181      0.05938      0.82068      0.13939      
14700   0.99688    0.08672    0.10986    0.05075      0.72824      0.21316      0.05787      0.81703      0.17730      
14800   0.99610    0.08693    0.11015    0.05277      0.72784      0.18413      0.05931      0.81947      0.15159      
14900   0.99635    0.08721    0.11050    0.05139      0.72875      0.18494      0.05463      0.81934      0.14555      
15000   0.99453    0.08740    0.11069    0.05332      0.72539      0.17724      0.05953      0.81602      0.13638      
15100   0.99571    0.08763    0.11096    0.05840      0.72121      0.17498      0.06543      0.81153      0.13876      
15200   0.99349    0.08767    0.11109    0.05127      0.72430      0.19159      0.06058      0.81183      0.16944      
15300   0.99346    0.08795    0.11136    0.05221      0.72154      0.20412      0.05814      0.81039      0.18176      
15400   0.99415    0.08803    0.11145    0.05307      0.72403      0.17577      0.06238      0.81389      0.14755      
15500   0.99551    0.08820    0.11166    0.05376      0.72131      0.20577      0.05959      0.81018      0.17884      
15600   0.99434    0.08836    0.11189    0.05186      0.72379      0.18426      0.05787      0.81454      0.15467      
15700   0.99455    0.08858    0.11224    0.04981      0.72552      0.18404      0.05489      0.81481      0.15307      
15800   0.99484    0.08887    0.11252    0.05246      0.72169      0.19299      0.06006      0.80832      0.16487      
15900   0.99642    0.08887    0.11266    0.05044      0.72568      0.18772      0.05934      0.81345      0.15952      
16000   0.99463    0.08897    0.11282    0.05049      0.72550      0.16854      0.05910      0.81580      0.13665      
16100   0.99426    0.08917    0.11312    0.04848      0.72450      0.18993      0.05619      0.81093      0.19269      
16200   0.99587    0.08934    0.11333    0.04797      0.72852      0.16697      0.05443      0.81437      0.15019      
16300   0.99644    0.08955    0.11356    0.05000      0.72465      0.18679      0.05794      0.81298      0.13776      
16400   0.99220    0.08967    0.11365    0.04745      0.72361      0.17826      0.05591      0.81283      0.14996      
16500   0.99597    0.08981    0.11384    0.05468      0.71942      0.18229      0.06259      0.80726      0.16504      
16600   0.99361    0.08984    0.11395    0.04796      0.72136      0.20502      0.05504      0.80986      0.19414      
16700   0.98985    0.09011    0.11426    0.04900      0.71915      0.17337      0.05732      0.80812      0.15888      
16800   0.99085    0.09042    0.11456    0.04850      0.72092      0.16452      0.05588      0.80996      0.13476      
16900   0.99446    0.09062    0.11480    0.05180      0.72059      0.16642      0.06010      0.81031      0.13625      
17000   0.99071    0.09082    0.11510    0.05149      0.71765      0.15640      0.05853      0.80634      0.13855      
17100   0.99165    0.09105    0.11531    0.04768      0.72069      0.16916      0.05679      0.81036      0.17024      
17200   0.98989    0.09118    0.11551    0.04625      0.72008      0.16880      0.05303      0.81068      0.15871      
17300   0.99132    0.09140    0.11575    0.04617      0.71985      0.18141      0.05348      0.81045      0.14419      
17400   0.99091    0.09152    0.11591    0.04780      0.71685      0.18829      0.05581      0.80646      0.17566      
17500   0.98957    0.09169    0.11617    0.04707      0.71640      0.18235      0.05325      0.80512      0.14440      
17600   0.98775    0.09167    0.11626    0.04769      0.71478      0.17345      0.05560      0.80348      0.13935      
17700   0.99299    0.09194    0.11657    0.05338      0.71336      0.17739      0.05969      0.80342      0.17484      
17800   0.98948    0.09206    0.11676    0.04860      0.71512      0.16936      0.05652      0.80427      0.15011      
17900   0.98877    0.09209    0.11698    0.04805      0.71348      0.18176      0.05447      0.80079      0.16583      
18000   0.98729    0.09222    0.11719    0.04706      0.71314      0.17685      0.05526      0.80144      0.15744      
18100   0.98667    0.09252    0.11750    0.04732      0.71223      0.17095      0.05642      0.79710      0.15711      
18200   0.98641    0.09269    0.11775    0.04624      0.71264      0.17082      0.05327      0.80017      0.15188      
18300   0.98874    0.09286    0.11802    0.04547      0.71519      0.17196      0.05159      0.80281      0.15144      
18400   0.98848    0.09297    0.11815    0.04637      0.71365      0.17338      0.05267      0.80201      0.16874      
18500   0.98683    0.09300    0.11821    0.04782      0.71169      0.16114      0.05631      0.79940      0.13508      
18600   0.98701    0.09315    0.11845    0.04800      0.71160      0.15810      0.05343      0.80000      0.13504      
18700   0.98628    0.09321    0.11848    0.04990      0.70924      0.15455      0.05779      0.79608      0.14514      
18800   0.98536    0.09332    0.11860    0.04477      0.71291      0.15759      0.05190      0.80025      0.13139      
18900   0.98589    0.09354    0.11883    0.04806      0.71005      0.15415      0.05627      0.79816      0.12802      
19000   0.98493    0.09362    0.11900    0.04807      0.70863      0.15614      0.05623      0.79668      0.13413      
19100   0.98446    0.09387    0.11930    0.04944      0.70533      0.16526      0.05674      0.79308      0.14897      
19200   0.98454    0.09411    0.11952    0.04802      0.70592      0.16973      0.05574      0.79425      0.15825      
19300   0.98347    0.09425    0.11965    0.04661      0.70853      0.14425      0.05509      0.79886      0.11566      
19400   0.98402    0.09443    0.11993    0.04751      0.70649      0.15661      0.05703      0.79585      0.12980      
19500   0.98293    0.09447    0.12012    0.04686      0.70505      0.16428      0.05436      0.79284      0.15187      
19600   0.98205    0.09459    0.12028    0.04566      0.70545      0.16061      0.05348      0.79400      0.14361      
19700   0.98405    0.09472    0.12046    0.04426      0.70849      0.16123      0.05117      0.79876      0.12851      
19800   0.98451    0.09490    0.12066    0.04722      0.70464      0.17087      0.05326      0.79195      0.16083      
19900   0.98541    0.09491    0.12079    0.04751      0.70620      0.16000      0.05262      0.79450      0.13232      
20000   0.98251    0.09496    0.12091    0.04547      0.70466      0.16508      0.05151      0.79304      0.14684      
20100   0.98379    0.09517    0.12107    0.04593      0.70575      0.15868      0.05477      0.79464      0.14108      
20200   0.98401    0.09525    0.12124    0.04744      0.70494      0.15141      0.05618      0.79197      0.13346      
20300   0.98348    0.09532    0.12138    0.04824      0.70260      0.15940      0.05465      0.79079      0.14521      
20400   0.98349    0.09533    0.12145    0.04770      0.70387      0.15133      0.05353      0.79364      0.13407      
20500   0.98125    0.09550    0.12150    0.04586      0.70326      0.15122      0.05283      0.79219      0.13665      
20600   0.98183    0.09560    0.12163    0.04767      0.70071      0.16224      0.05492      0.78900      0.14859      
20700   0.97974    0.09573    0.12175    0.04802      0.69936      0.14884      0.05533      0.78794      0.11901      
20800   0.97924    0.09596    0.12204    0.04692      0.69881      0.15506      0.05514      0.78782      0.13964      
20900   0.97893    0.09599    0.12214    0.04645      0.69893      0.15438      0.05315      0.78738      0.14228      
21000   0.97718    0.09598    0.12218    0.04631      0.69798      0.14725      0.05399      0.78682      0.12193      
21100   0.97891    0.09627    0.12251    0.04704      0.69824      0.14841      0.05571      0.78634      0.12864      
21200   0.97754    0.09623    0.12261    0.04511      0.69873      0.14864      0.05289      0.78725      0.12595      
21300   0.97937    0.09637    0.12281    0.04575      0.69745      0.16992      0.05348      0.78574      0.15777      
21400   0.97698    0.09651    0.12298    0.04591      0.69568      0.15901      0.05208      0.78425      0.13785      
21500   0.97900    0.09677    0.12324    0.04560      0.69854      0.14850      0.05312      0.78760      0.12132      
21600   0.97817    0.09688    0.12347    0.04597      0.69694      0.14917      0.05361      0.78507      0.13334      
21700   0.97718    0.09709    0.12374    0.04513      0.69617      0.15044      0.05251      0.78336      0.12860      
21800   0.97803    0.09733    0.12400    0.04438      0.69748      0.14828      0.05193      0.78542      0.12126      
21900   0.97822    0.09748    0.12425    0.04579      0.69531      0.15400      0.05237      0.78299      0.13627      
22000   0.97787    0.09775    0.12443    0.04511      0.69483      0.15755      0.05167      0.78337      0.14090      
22100   0.97681    0.09778    0.12450    0.04495      0.69401      0.15572      0.05154      0.78186      0.13573      
22200   0.97707    0.09795    0.12466    0.04588      0.69266      0.15932      0.05387      0.77964      0.15347      
22300   0.97777    0.09824    0.12504    0.04494      0.69443      0.15127      0.05334      0.78138      0.12735      
22400   0.97737    0.09840    0.12521    0.04332      0.69491      0.15534      0.04942      0.78193      0.14176      
22500   0.97751    0.09847    0.12536    0.04539      0.69387      0.14420      0.05263      0.78062      0.12276      
22600   0.97706    0.09859    0.12551    0.04620      0.69201      0.14741      0.05441      0.77806      0.13978      
22700   0.97831    0.09886    0.12586    0.04475      0.69350      0.15339      0.05215      0.78249      0.13560      
22800   0.97701    0.09907    0.12607    0.04367      0.69395      0.14257      0.05155      0.78160      0.12315      
22900   0.97714    0.09913    0.12628    0.04513      0.69043      0.16165      0.05227      0.77617      0.14944      
23000   0.97804    0.09915    0.12632    0.04381      0.69311      0.15658      0.05105      0.78024      0.13588      
23100   0.97737    0.09938    0.12668    0.04424      0.69132      0.15746      0.05098      0.77816      0.14188      
23200   0.97702    0.09961    0.12683    0.04498      0.69104      0.14554      0.05192      0.77864      0.12715      
23300   0.97616    0.09974    0.12695    0.04291      0.69174      0.14825      0.04990      0.77863      0.13252      
23400   0.97580    0.09976    0.12709    0.04369      0.69078      0.14479      0.05005      0.77797      0.13017      
23500   0.97597    0.09985    0.12727    0.04241      0.69115      0.15295      0.04927      0.77781      0.14118      
23600   0.97597    0.09992    0.12742    0.04375      0.69071      0.14172      0.05206      0.77697      0.11952      
23700   0.97557    0.09985    0.12741    0.04556      0.68712      0.15635      0.05317      0.77407      0.14078      
23800   0.97573    0.09993    0.12753    0.04471      0.68888      0.14684      0.05265      0.77595      0.12480      
23900   0.97530    0.09993    0.12755    0.04326      0.68930      0.15252      0.05175      0.77719      0.13567      
24000   0.97481    0.10005    0.12772    0.04359      0.68910      0.14353      0.05229      0.77647      0.12157      
24100   0.97596    0.10013    0.12781    0.04521      0.68793      0.14880      0.05353      0.77515      0.13276      
24200   0.97468    0.10030    0.12793    0.04428      0.68693      0.15243      0.05122      0.77373      0.13865      
24300   0.97371    0.10030    0.12793    0.04317      0.68745      0.14850      0.05109      0.77510      0.13569      
24400   0.97390    0.10034    0.12800    0.04270      0.68776      0.15116      0.05119      0.77442      0.14819      
24500   0.97287    0.10042    0.12808    0.04367      0.68512      0.15571      0.05170      0.77233      0.15119      
24600   0.97274    0.10053    0.12815    0.04366      0.68582      0.14584      0.05123      0.77244      0.13282      
24700   0.97093    0.10075    0.12838    0.04208      0.68522      0.14507      0.05004      0.77200      0.12740      
24800   0.97195    0.10065    0.12836    0.04276      0.68400      0.16182      0.05014      0.77036      0.14743      
24900   0.97145    0.10071    0.12843    0.04300      0.68407      0.15241      0.05062      0.77044      0.12257      
25000   0.97068    0.10096    0.12868    0.04290      0.68280      0.15336      0.04976      0.76902      0.13949      
25100   0.97068    0.10110    0.12891    0.04317      0.68238      0.15115      0.05124      0.76793      0.12805      
25200   0.97180    0.10122    0.12910    0.04275      0.68518      0.13558      0.05136      0.77270      0.10859      
25300   0.97151    0.10130    0.12917    0.04204      0.68405      0.14950      0.04903      0.77177      0.13528      
25400   0.97181    0.10122    0.12907    0.04291      0.68379      0.14817      0.05088      0.77050      0.12578      
25500   0.97160    0.10139    0.12927    0.04326      0.68281      0.14876      0.05146      0.77038      0.13248      
25600   0.97108    0.10152    0.12948    0.04246      0.68370      0.13918      0.05009      0.77082      0.11567      
25700   0.97121    0.10161    0.12968    0.04309      0.68219      0.14643      0.05032      0.76808      0.13407      
25800   0.97092    0.10151    0.12969    0.04112      0.68402      0.14583      0.04805      0.77223      0.12678      
25900   0.96943    0.10144    0.12976    0.04239      0.68136      0.14475      0.05016      0.76815      0.12956      
26000   0.97087    0.10155    0.12993    0.04312      0.68160      0.14675      0.05157      0.76920      0.12770      
26100   0.96923    0.10164    0.13001    0.04195      0.68066      0.14957      0.05031      0.76773      0.13187      
26200   0.97020    0.10162    0.12993    0.04313      0.67908      0.16447      0.05139      0.76535      0.15623      
26300   0.96945    0.10172    0.13001    0.04122      0.68093      0.15569      0.04856      0.76897      0.13570      
26400   0.96897    0.10175    0.13010    0.04176      0.68069      0.14666      0.04973      0.76732      0.12311      
26500   0.97106    0.10204    0.13039    0.04099      0.68212      0.15527      0.04861      0.76930      0.13392      
26600   0.96996    0.10198    0.13040    0.04254      0.67875      0.16292      0.05070      0.76547      0.15059      
26700   0.97058    0.10210    0.13049    0.04154      0.68194      0.14518      0.04935      0.76887      0.12323      
26800   0.97068    0.10218    0.13066    0.04236      0.68098      0.14490      0.05012      0.76791      0.11616      
26900   0.97205    0.10237    0.13090    0.04327      0.68059      0.14920      0.05028      0.76658      0.13436      
27000   0.97049    0.10232    0.13086    0.04202      0.68021      0.15084      0.04919      0.76762      0.12865      
27100   0.97071    0.10242    0.13105    0.04300      0.67945      0.14803      0.04965      0.76694      0.11727      
27200   0.96969    0.10244    0.13107    0.04195      0.67949      0.14735      0.04944      0.76695      0.12920      
27300   0.96971    0.10246    0.13120    0.04161      0.68024      0.14201      0.04859      0.76751      0.12203      
27400   0.96808    0.10257    0.13135    0.04092      0.67814      0.15093      0.04919      0.76507      0.13433      
27500   0.96928    0.10260    0.13132    0.04339      0.67610      0.15874      0.05179      0.76287      0.14274      
27600   0.96926    0.10276    0.13141    0.04302      0.67756      0.14519      0.05074      0.76356      0.12081      
27700   0.96862    0.10281    0.13153    0.04208      0.67745      0.14759      0.04965      0.76508      0.12946      
27800   0.96976    0.10280    0.13155    0.04197      0.67931      0.14129      0.04995      0.76711      0.11602      
27900   0.96846    0.10294    0.13174    0.04154      0.67699      0.15253      0.04947      0.76484      0.13607      
28000   0.96886    0.10312    0.13189    0.04235      0.67716      0.14343      0.05069      0.76370      0.12637      
28100   0.96970    0.10317    0.13198    0.04101      0.67904      0.14493      0.04856      0.76556      0.12030      
28200   0.96854    0.10313    0.13193    0.04154      0.67646      0.15471      0.04919      0.76339      0.14600      
28300   0.96861    0.10313    0.13195    0.04322      0.67577      0.14545      0.05058      0.76135      0.12996      
28400   0.96771    0.10314    0.13191    0.04202      0.67672      0.13926      0.04856      0.76336      0.11836      
28500   0.96741    0.10313    0.13184    0.04282      0.67506      0.14553      0.05044      0.76053      0.12865      
28600   0.96683    0.10314    0.13186    0.04183      0.67575      0.14255      0.04943      0.76182      0.12259      
28700   0.96774    0.10315    0.13189    0.04059      0.67801      0.14105      0.04838      0.76581      0.11505      
28800   0.96658    0.10319    0.13196    0.04232      0.67486      0.14250      0.04998      0.76009      0.12582      
28900   0.96553    0.10323    0.13199    0.04122      0.67483      0.14273      0.04825      0.76034      0.12566      
29000   0.96732    0.10329    0.13211    0.04164      0.67684      0.13424      0.05041      0.76225      0.11012      
29100   0.96562    0.10332    0.13220    0.04099      0.67489      0.14225      0.04857      0.76067      0.12771      
29200   0.96495    0.10336    0.13228    0.04108      0.67522      0.13016      0.04910      0.76123      0.10441      
29300   0.96533    0.10337    0.13225    0.04094      0.67559      0.13176      0.04847      0.76224      0.10868      
29400   0.96430    0.10341    0.13242    0.04100      0.67336      0.14112      0.04962      0.75843      0.12123      
29500   0.96356    0.10330    0.13239    0.04130      0.67320      0.13371      0.04920      0.75968      0.10992      
29600   0.96498    0.10348    0.13251    0.04148      0.67270      0.14808      0.04949      0.75793      0.13114      
29700   0.96387    0.10357    0.13262    0.04158      0.67231      0.13790      0.04963      0.75806      0.11698      
29800   0.96425    0.10358    0.13259    0.04262      0.67175      0.13713      0.05164      0.75801      0.11086      
29900   0.96332    0.10374    0.13278    0.04026      0.67260      0.13941      0.04853      0.75878      0.11986      
30000   0.96382    0.10374    0.13286    0.04169      0.66987      0.15656      0.05089      0.75601      0.14937      
30100   0.96300    0.10397    0.13306    0.04007      0.67249      0.13417      0.04831      0.75988      0.11253      
30200   0.96414    0.10390    0.13301    0.04274      0.67008      0.14407      0.05195      0.75611      0.12789      
30300   0.96394    0.10396    0.13304    0.04119      0.67204      0.13716      0.04987      0.75880      0.11714      
30400   0.96489    0.10410    0.13317    0.04240      0.67168      0.13543      0.05044      0.75759      0.11243      
30500   0.96353    0.10417    0.13329    0.04037      0.67162      0.14087      0.04827      0.75745      0.12259      
30600   0.96299    0.10409    0.13321    0.04215      0.67075      0.12806      0.04995      0.75575      0.10497      
30700   0.96293    0.10424    0.13346    0.04061      0.67120      0.13427      0.04782      0.75652      0.11328      
30800   0.96349    0.10429    0.13354    0.04087      0.66921      0.15575      0.04914      0.75374      0.14862      
30900   0.96291    0.10437    0.13374    0.04256      0.66884      0.13401      0.05036      0.75405      0.11636      
31000   0.96358    0.10449    0.13378    0.04232      0.66919      0.13804      0.05089      0.75353      0.11997      
31100   0.96318    0.10459    0.13388    0.04210      0.66912      0.13493      0.05054      0.75316      0.11639      
31200   0.96199    0.10475    0.13405    0.04066      0.66846      0.14072      0.04901      0.75285      0.12662      
31300   0.96407    0.10488    0.13416    0.04190      0.66889      0.14238      0.04926      0.75316      0.13454      
31400   0.96219    0.10491    0.13423    0.04022      0.66946      0.13363      0.04874      0.75479      0.11584      
31500   0.96224    0.10491    0.13437    0.04107      0.66836      0.13527      0.04982      0.75372      0.12001      
31600   0.96144    0.10483    0.13436    0.04040      0.66852      0.13335      0.04877      0.75331      0.11615      
31700   0.96208    0.10491    0.13442    0.04010      0.66852      0.14122      0.04852      0.75339      0.12768      
31800   0.96193    0.10493    0.13453    0.03980      0.66838      0.14285      0.04705      0.75385      0.13612      
31900   0.96256    0.10495    0.13459    0.04086      0.66786      0.14309      0.04858      0.75358      0.12483      
32000   0.96136    0.10497    0.13463    0.04132      0.66690      0.13539      0.04988      0.75242      0.11770      
32100   0.96079    0.10506    0.13471    0.04199      0.66547      0.13568      0.05113      0.75058      0.12448      
32200   0.96186    0.10495    0.13460    0.04019      0.66848      0.13635      0.04867      0.75369      0.11844      
32300   0.96166    0.10491    0.13458    0.04092      0.66627      0.14978      0.04926      0.75156      0.12935      
32400   0.96103    0.10486    0.13456    0.04124      0.66623      0.14139      0.05010      0.75220      0.12652      
32500   0.96050    0.10497    0.13477    0.04046      0.66624      0.14052      0.04861      0.75153      0.12387      
32600   0.95998    0.10501    0.13488    0.04081      0.66552      0.13756      0.04970      0.75099      0.11144      
32700   0.96010    0.10503    0.13495    0.04033      0.66621      0.13576      0.04910      0.75201      0.11169      
32800   0.96088    0.10501    0.13492    0.04075      0.66658      0.13622      0.04924      0.75178      0.11613      
32900   0.95933    0.10501    0.13489    0.03969      0.66669      0.13051      0.04820      0.75276      0.10873      
33000   0.96047    0.10511    0.13499    0.03976      0.66692      0.13690      0.04839      0.75298      0.12033      
33100   0.95965    0.10510    0.13491    0.04111      0.66589      0.12647      0.04970      0.75115      0.11053      
33200   0.95936    0.10508    0.13491    0.04003      0.66646      0.12887      0.04794      0.75222      0.11240      
33300   0.95918    0.10507    0.13485    0.04097      0.66498      0.13305      0.04935      0.75091      0.11406      
33400   0.95979    0.10503    0.13487    0.03994      0.66581      0.14139      0.04751      0.75254      0.12974      
33500   0.95916    0.10501    0.13487    0.04068      0.66518      0.13416      0.04889      0.75134      0.11415      
33600   0.95846    0.10500    0.13493    0.03997      0.66563      0.12927      0.04788      0.75118      0.10768      
33700   0.95882    0.10512    0.13505    0.04076      0.66448      0.13408      0.04860      0.75064      0.11710      
33800   0.95889    0.10528    0.13518    0.04000      0.66529      0.13140      0.04841      0.75042      0.11790      
33900   0.95903    0.10526    0.13518    0.03963      0.66545      0.13504      0.04781      0.75013      0.12296      
34000   0.95840    0.10527    0.13524    0.03970      0.66509      0.13096      0.04862      0.75019      0.11739      
34100   0.95861    0.10530    0.13537    0.04002      0.66480      0.13125      0.04872      0.75001      0.11711      
34200   0.95798    0.10533    0.13538    0.03993      0.66453      0.12814      0.04840      0.74907      0.11123      
34300   0.95826    0.10541    0.13543    0.04046      0.66437      0.12588      0.04909      0.74882      0.10624      
34400   0.95794    0.10538    0.13536    0.04090      0.66284      0.13458      0.04970      0.74722      0.11860      
34500   0.95685    0.10540    0.13542    0.03911      0.66429      0.12637      0.04790      0.74986      0.11132      
34600   0.95722    0.10543    0.13552    0.03994      0.66313      0.13211      0.04817      0.74805      0.11938      
34700   0.95704    0.10535    0.13551    0.03995      0.66310      0.13133      0.04791      0.74919      0.11738      
34800   0.95713    0.10526    0.13551    0.03921      0.66292      0.14242      0.04726      0.74870      0.13390      
34900   0.95653    0.10538    0.13551    0.03961      0.66276      0.13266      0.04797      0.74885      0.12110      
35000   0.95700    0.10529    0.13539    0.03993      0.66263      0.13766      0.04796      0.74844      0.12547      
35100   0.95709    0.10538    0.13547    0.03928      0.66426      0.12706      0.04716      0.75053      0.11171      
35200   0.95554    0.10538    0.13544    0.04039      0.66146      0.12866      0.04909      0.74718      0.11729      
35300   0.95555    0.10544    0.13556    0.03931      0.66226      0.12975      0.04770      0.74908      0.11323      
35400   0.95599    0.10545    0.13554    0.04061      0.66151      0.12864      0.04875      0.74758      0.11841      
35500   0.95456    0.10536    0.13551    0.03920      0.66169      0.12803      0.04743      0.74823      0.11657      
35600   0.95502    0.10535    0.13559    0.04040      0.66045      0.13233      0.04833      0.74729      0.12246      
35700   0.95451    0.10537    0.13556    0.03950      0.66057      0.13515      0.04785      0.74697      0.12800      
35800   0.95576    0.10546    0.13570    0.03997      0.66206      0.12584      0.04782      0.74840      0.11187      
35900   0.95368    0.10552    0.13577    0.03887      0.66063      0.12891      0.04706      0.74601      0.11841      
36000   0.95426    0.10541    0.13562    0.03933      0.66100      0.12897      0.04766      0.74687      0.11977      
36100   0.95370    0.10545    0.13561    0.03951      0.66091      0.12219      0.04764      0.74731      0.10380      
36200   0.95303    0.10529    0.13550    0.03953      0.65969      0.13009      0.04753      0.74566      0.12151      
36300   0.95413    0.10529    0.13554    0.03867      0.66123      0.13409      0.04714      0.74737      0.11778      
36400   0.95363    0.10522    0.13555    0.03947      0.66096      0.12439      0.04797      0.74642      0.10681      
36500   0.95374    0.10520    0.13543    0.03855      0.66160      0.12960      0.04673      0.74723      0.11451      
36600   0.95299    0.10506    0.13534    0.03989      0.66010      0.12608      0.04881      0.74451      0.11334      
36700   0.95322    0.10507    0.13532    0.03822      0.66190      0.12705      0.04650      0.74677      0.11014      
36800   0.95170    0.10496    0.13522    0.03916      0.65964      0.12723      0.04782      0.74424      0.11329      
36900   0.95189    0.10505    0.13529    0.03870      0.65978      0.13067      0.04740      0.74428      0.12500      
37000   0.95151    0.10504    0.13530    0.03841      0.65931      0.13445      0.04693      0.74365      0.12730      
37100   0.95154    0.10503    0.13531    0.03840      0.65981      0.12987      0.04664      0.74509      0.11887      
37200   0.95122    0.10502    0.13540    0.03838      0.66002      0.12395      0.04643      0.74551      0.11523      
37300   0.95115    0.10502    0.13540    0.03888      0.65916      0.12694      0.04687      0.74365      0.11575      
37400   0.95137    0.10499    0.13534    0.03925      0.66016      0.11628      0.04794      0.74501      0.09897      
37500   0.95071    0.10498    0.13538    0.03841      0.65912      0.12829      0.04648      0.74398      0.11519      
37600   0.95101    0.10499    0.13541    0.03851      0.66023      0.11864      0.04662      0.74515      0.10217      
37700   0.95041    0.10492    0.13525    0.03971      0.65768      0.12839      0.04771      0.74138      0.11998      
37800   0.94993    0.10488    0.13519    0.03866      0.65932      0.11876      0.04650      0.74449      0.10287      
37900   0.95013    0.10487    0.13519    0.03808      0.65971      0.12280      0.04637      0.74451      0.11144      
38000   0.95008    0.10495    0.13541    0.03959      0.65777      0.12362      0.04870      0.74162      0.11352      
38100   0.94929    0.10495    0.13542    0.03869      0.65799      0.12233      0.04699      0.74232      0.11103      
38200   0.94946    0.10487    0.13539    0.03972      0.65763      0.11841      0.04770      0.74199      0.10540      
38300   0.94887    0.10493    0.13538    0.03895      0.65723      0.12378      0.04705      0.74124      0.11476      
38400   0.94863    0.10487    0.13534    0.04010      0.65630      0.12024      0.04820      0.74027      0.10835      
38500   0.94853    0.10495    0.13542    0.03860      0.65770      0.11861      0.04709      0.74280      0.10578      
38600   0.94797    0.10491    0.13541    0.03925      0.65643      0.11956      0.04748      0.74122      0.10930      
38700   0.94794    0.10507    0.13549    0.03956      0.65604      0.11778      0.04770      0.74133      0.10747      
38800   0.94768    0.10499    0.13548    0.03872      0.65613      0.12361      0.04733      0.74107      0.11138      
38900   0.94789    0.10504    0.13543    0.03784      0.65714      0.12444      0.04591      0.74211      0.11424      
39000   0.94786    0.10498    0.13535    0.03868      0.65662      0.12228      0.04717      0.74127      0.11498      
39100   0.94802    0.10496    0.13527    0.04001      0.65526      0.12520      0.04864      0.73962      0.11945      
39200   0.94680    0.10484    0.13513    0.03798      0.65647      0.12373      0.04693      0.74089      0.11407      
39300   0.94663    0.10482    0.13518    0.03854      0.65597      0.12121      0.04718      0.74042      0.11063      
39400   0.94646    0.10473    0.13512    0.03803      0.65575      0.12831      0.04624      0.73966      0.11700      
39500   0.94597    0.10475    0.13504    0.03859      0.65528      0.12305      0.04696      0.73935      0.11290      
39600   0.94707    0.10487    0.13514    0.03912      0.65569      0.12242      0.04717      0.73971      0.10491      
39700   0.94701    0.10489    0.13513    0.03865      0.65566      0.12682      0.04676      0.73944      0.11626      
39800   0.94626    0.10488    0.13510    0.03840      0.65607      0.11790      0.04642      0.74137      0.10087      
39900   0.94573    0.10477    0.13506    0.03812      0.65488      0.12896      0.04620      0.73936      0.12143      
40000   0.94552    0.10484    0.13511    0.03845      0.65424      0.12875      0.04688      0.73777      0.11985      
40100   0.94576    0.10492    0.13517    0.03797      0.65496      0.12731      0.04729      0.73790      0.11806      
40200   0.94485    0.10492    0.13517    0.03869      0.65348      0.12595      0.04774      0.73718      0.11589      
40300   0.94423    0.10473    0.13502    0.03797      0.65460      0.11914      0.04650      0.73887      0.10174      
40400   0.94442    0.10477    0.13502    0.03912      0.65372      0.11782      0.04777      0.73807      0.10735      
40500   0.94316    0.10475    0.13501    0.03869      0.65237      0.12347      0.04727      0.73677      0.11050      
40600   0.94353    0.10480    0.13504    0.03823      0.65347      0.11989      0.04628      0.73783      0.10732      
40700   0.94385    0.10465    0.13499    0.03944      0.65198      0.12790      0.04876      0.73554      0.11986      
40800   0.94354    0.10461    0.13493    0.03818      0.65351      0.12298      0.04721      0.73747      0.10920      
40900   0.94332    0.10455    0.13494    0.03900      0.65248      0.12335      0.04794      0.73700      0.10786      
41000   0.94334    0.10443    0.13486    0.03824      0.65315      0.12660      0.04711      0.73776      0.11191      
41100   0.94281    0.10457    0.13496    0.03810      0.65223      0.12968      0.04675      0.73700      0.11977      
41200   0.94283    0.10452    0.13488    0.03826      0.65254      0.12634      0.04697      0.73711      0.11768      
41300   0.94205    0.10434    0.13473    0.03812      0.65283      0.12035      0.04643      0.73740      0.10553      
41400   0.94259    0.10436    0.13474    0.03754      0.65323      0.12725      0.04604      0.73712      0.11498      
41500   0.94203    0.10442    0.13480    0.03813      0.65241      0.12271      0.04700      0.73596      0.10766      
41600   0.94151    0.10432    0.13468    0.03793      0.65234      0.12242      0.04646      0.73651      0.11315      
41700   0.94157    0.10427    0.13465    0.03865      0.65111      0.12894      0.04713      0.73475      0.12582      
41800   0.94099    0.10429    0.13464    0.03813      0.65208      0.11862      0.04690      0.73677      0.10774      
41900   0.94086    0.10425    0.13457    0.03922      0.65111      0.11707      0.04799      0.73581      0.10607      
42000   0.94071    0.10432    0.13463    0.03764      0.65197      0.12151      0.04610      0.73642      0.11184      
42100   0.94031    0.10427    0.13465    0.03737      0.65140      0.12607      0.04571      0.73578      0.11600      
42200   0.94019    0.10433    0.13476    0.03843      0.65084      0.11830      0.04701      0.73515      0.10829      
42300   0.94025    0.10438    0.13469    0.03803      0.65115      0.11990      0.04663      0.73595      0.11265      
42400   0.93992    0.10427    0.13457    0.03758      0.65142      0.12075      0.04595      0.73618      0.11015      
42500   0.93910    0.10430    0.13456    0.03793      0.65058      0.11718      0.04696      0.73460      0.10571      
42600   0.93921    0.10416    0.13444    0.03814      0.65035      0.12117      0.04621      0.73442      0.11396      
42700   0.93890    0.10420    0.13449    0.03828      0.65036      0.11576      0.04712      0.73402      0.10205      
42800   0.93892    0.10410    0.13436    0.03937      0.64959      0.11503      0.04853      0.73278      0.10330      
42900   0.93890    0.10413    0.13440    0.03756      0.65092      0.11890      0.04623      0.73468      0.10550      
43000   0.93868    0.10404    0.13429    0.03878      0.64973      0.11839      0.04714      0.73354      0.10807      
43100   0.93773    0.10405    0.13425    0.03805      0.64948      0.11892      0.04691      0.73240      0.10820      
43200   0.93734    0.10398    0.13420    0.03831      0.64912      0.11739      0.04708      0.73306      0.10558      
43300   0.93741    0.10396    0.13414    0.03817      0.64898      0.12162      0.04666      0.73392      0.11548      
43400   0.93716    0.10401    0.13419    0.03846      0.64903      0.11473      0.04719      0.73294      0.10430      
43500   0.93706    0.10388    0.13410    0.03854      0.64819      0.12356      0.04757      0.73231      0.11396      
43600   0.93703    0.10396    0.13405    0.03808      0.64961      0.11328      0.04682      0.73381      0.09882      
43700   0.93618    0.10394    0.13403    0.03816      0.64861      0.11430      0.04653      0.73228      0.09897      
43800   0.93618    0.10391    0.13402    0.03790      0.64880      0.11552      0.04660      0.73220      0.10323      
43900   0.93598    0.10387    0.13403    0.03722      0.64922      0.11645      0.04562      0.73377      0.10853      
44000   0.93582    0.10381    0.13403    0.03770      0.64828      0.12009      0.04620      0.73257      0.11284      
44100   0.93580    0.10378    0.13392    0.03762      0.64883      0.11647      0.04627      0.73333      0.10405      
44200   0.93531    0.10380    0.13394    0.03721      0.64810      0.12264      0.04600      0.73293      0.11688      
44300   0.93512    0.10376    0.13396    0.03760      0.64799      0.11809      0.04621      0.73236      0.11102      
44400   0.93556    0.10370    0.13382    0.03696      0.64957      0.11512      0.04542      0.73469      0.10328      
44500   0.93517    0.10360    0.13373    0.03759      0.64882      0.11438      0.04609      0.73283      0.10259      
44600   0.93467    0.10349    0.13363    0.03767      0.64766      0.12211      0.04635      0.73150      0.11538      
44700   0.93432    0.10354    0.13367    0.03686      0.64830      0.11950      0.04567      0.73285      0.11012      
44800   0.93403    0.10350    0.13369    0.03712      0.64854      0.11172      0.04572      0.73259      0.10069      
44900   0.93338    0.10342    0.13364    0.03706      0.64707      0.12185      0.04584      0.73092      0.11051      
45000   0.93357    0.10337    0.13356    0.03846      0.64628      0.11889      0.04704      0.73039      0.10660      
45100   0.93329    0.10327    0.13339    0.03732      0.64782      0.11492      0.04606      0.73194      0.10227      
45200   0.93332    0.10340    0.13345    0.03818      0.64603      0.12254      0.04672      0.72938      0.11554      
45300   0.93299    0.10334    0.13343    0.03788      0.64673      0.11603      0.04716      0.73025      0.10510      
45400   0.93241    0.10332    0.13334    0.03818      0.64588      0.11686      0.04690      0.72928      0.11124      
45500   0.93304    0.10334    0.13346    0.03727      0.64722      0.11742      0.04577      0.73126      0.10871      
45600   0.93279    0.10343    0.13345    0.03714      0.64706      0.11719      0.04594      0.73093      0.10930      
45700   0.93299    0.10345    0.13351    0.03703      0.64783      0.11165      0.04557      0.73188      0.09983      
45800   0.93226    0.10337    0.13345    0.03729      0.64663      0.11516      0.04606      0.73017      0.10416      
45900   0.93239    0.10324    0.13330    0.03742      0.64658      0.11854      0.04642      0.73017      0.10742      
46000   0.93149    0.10315    0.13325    0.03662      0.64679      0.11677      0.04563      0.73074      0.10724      
46100   0.93143    0.10313    0.13321    0.03724      0.64656      0.11286      0.04641      0.73003      0.09994      
46200   0.93088    0.10300    0.13309    0.03742      0.64587      0.11505      0.04635      0.72926      0.10436      
46300   0.93054    0.10298    0.13302    0.03759      0.64518      0.11766      0.04635      0.72822      0.10939      
46400   0.93056    0.10297    0.13287    0.03800      0.64541      0.11311      0.04726      0.72884      0.10201      
46500   0.93016    0.10303    0.13286    0.03693      0.64564      0.11711      0.04583      0.72961      0.10830      
46600   0.93027    0.10308    0.13286    0.03695      0.64584      0.11547      0.04567      0.73024      0.10600      
46700   0.92979    0.10283    0.13268    0.03816      0.64431      0.11814      0.04725      0.72814      0.11139      
46800   0.92947    0.10280    0.13270    0.03747      0.64517      0.11323      0.04612      0.72969      0.10146      
46900   0.92896    0.10271    0.13270    0.03728      0.64478      0.11479      0.04627      0.72906      0.10359      
47000   0.92847    0.10259    0.13261    0.03703      0.64458      0.11656      0.04619      0.72846      0.11067      
47100   0.92831    0.10262    0.13258    0.03758      0.64407      0.11458      0.04635      0.72799      0.10546      
47200   0.92842    0.10258    0.13260    0.03725      0.64457      0.11420      0.04660      0.72873      0.10528      
47300   0.92817    0.10253    0.13258    0.03812      0.64308      0.11857      0.04715      0.72772      0.11165      
47400   0.92745    0.10244    0.13246    0.03701      0.64381      0.11731      0.04595      0.72809      0.11127      
47500   0.92727    0.10246    0.13240    0.03709      0.64348      0.11841      0.04576      0.72707      0.11200      
47600   0.92721    0.10230    0.13225    0.03805      0.64330      0.11319      0.04720      0.72744      0.10253      
47700   0.92697    0.10233    0.13225    0.03739      0.64386      0.11144      0.04676      0.72771      0.09850      
47800   0.92670    0.10224    0.13215    0.03724      0.64338      0.11685      0.04609      0.72757      0.10635      
47900   0.92635    0.10208    0.13202    0.03796      0.64324      0.11045      0.04693      0.72744      0.10033      
48000   0.92646    0.10189    0.13184    0.03779      0.64317      0.11768      0.04635      0.72682      0.10824      
48100   0.92547    0.10176    0.13165    0.03711      0.64325      0.11695      0.04629      0.72725      0.11084      
48200   0.92536    0.10157    0.13150    0.03695      0.64382      0.11519      0.04609      0.72778      0.10080      
48300   0.92517    0.10123    0.13119    0.03795      0.64342      0.11374      0.04743      0.72683      0.10279      
48400   0.92451    0.10127    0.13123    0.03650      0.64353      0.11974      0.04544      0.72739      0.11190      
48500   0.92429    0.10117    0.13113    0.03789      0.64205      0.12062      0.04671      0.72553      0.11184      
48600   0.92393    0.10095    0.13088    0.03721      0.64326      0.11625      0.04619      0.72722      0.10221      
48700   0.92321    0.10094    0.13085    0.03772      0.64231      0.11386      0.04680      0.72580      0.10231      
48800   0.92299    0.10080    0.13074    0.03678      0.64315      0.11518      0.04564      0.72724      0.10242      
48900   0.92279    0.10076    0.13069    0.03699      0.64298      0.11374      0.04594      0.72702      0.10015      
49000   0.92253    0.10061    0.13055    0.03639      0.64321      0.11774      0.04518      0.72759      0.10740      
49100   0.92309    0.10064    0.13057    0.03644      0.64345      0.11987      0.04534      0.72771      0.10871      
49200   0.92222    0.10065    0.13058    0.03687      0.64228      0.11835      0.04611      0.72673      0.10655      
49300   0.92195    0.10053    0.13046    0.03666      0.64265      0.11645      0.04548      0.72758      0.10949      
49400   0.92155    0.10043    0.13040    0.03758      0.64213      0.11000      0.04681      0.72597      0.09815      
49500   0.92142    0.10038    0.13039    0.03686      0.64273      0.11063      0.04587      0.72755      0.09927      
49600   0.92119    0.10022    0.13021    0.03692      0.64251      0.11334      0.04627      0.72681      0.10289      
49700   0.92051    0.10016    0.13013    0.03775      0.64132      0.11154      0.04732      0.72530      0.09972      
49800   0.92042    0.10000    0.13006    0.03707      0.64179      0.11495      0.04589      0.72624      0.10299      
49900   0.91992    0.09994    0.12995    0.03711      0.64162      0.11297      0.04643      0.72629      0.10518      
50000   0.92013    0.09982    0.12982    0.03704      0.64206      0.11386      0.04630      0.72643      0.10066      
50100   0.91997    0.09972    0.12964    0.03660      0.64222      0.11787      0.04591      0.72647      0.10929      
50200   0.91899    0.09963    0.12956    0.03640      0.64173      0.11665      0.04543      0.72618      0.11158      
50300   0.91896    0.09954    0.12945    0.03671      0.64171      0.11547      0.04542      0.72590      0.10893      
50400   0.91870    0.09941    0.12929    0.03662      0.64179      0.11597      0.04580      0.72586      0.11157      
50500   0.91811    0.09942    0.12929    0.03692      0.64120      0.11279      0.04622      0.72520      0.10461      
50600   0.91794    0.09933    0.12921    0.03751      0.64079      0.11107      0.04633      0.72490      0.10219      
50700   0.91792    0.09937    0.12919    0.03696      0.64098      0.11412      0.04630      0.72465      0.10610      
50800   0.91778    0.09928    0.12908    0.03627      0.64174      0.11416      0.04551      0.72581      0.10622      
50900   0.91695    0.09918    0.12899    0.03671      0.64057      0.11514      0.04596      0.72381      0.10988      
51000   0.91736    0.09911    0.12886    0.03687      0.64109      0.11424      0.04613      0.72500      0.10638      
51100   0.91675    0.09899    0.12880    0.03687      0.64078      0.11298      0.04607      0.72462      0.10642      
51200   0.91700    0.09897    0.12872    0.03678      0.64109      0.11441      0.04560      0.72482      0.10744      
51300   0.91627    0.09886    0.12864    0.03609      0.64107      0.11614      0.04516      0.72515      0.11131      
51400   0.91595    0.09865    0.12852    0.03698      0.64013      0.11669      0.04628      0.72337      0.11202      
51500   0.91571    0.09862    0.12844    0.03682      0.64029      0.11543      0.04632      0.72365      0.10847      
51600   0.91538    0.09853    0.12833    0.03669      0.64027      0.11563      0.04554      0.72384      0.11024      
51700   0.91534    0.09845    0.12824    0.03665      0.64093      0.11071      0.04564      0.72539      0.10078      
51800   0.91504    0.09836    0.12814    0.03689      0.64018      0.11472      0.04596      0.72440      0.11049      
51900   0.91486    0.09833    0.12805    0.03718      0.63999      0.11314      0.04589      0.72406      0.10826      
52000   0.91462    0.09831    0.12811    0.03653      0.64020      0.11482      0.04532      0.72457      0.11119      
52100   0.91417    0.09817    0.12796    0.03722      0.63955      0.11286      0.04610      0.72365      0.10948      
52200   0.91378    0.09805    0.12790    0.03719      0.63935      0.11283      0.04613      0.72303      0.10786      
52300   0.91331    0.09808    0.12792    0.03708      0.63904      0.11190      0.04598      0.72293      0.10786      
52400   0.91320    0.09807    0.12793    0.03679      0.63903      0.11386      0.04592      0.72263      0.10941      
52500   0.91324    0.09807    0.12790    0.03628      0.63978      0.11215      0.04505      0.72404      0.10487      
52600   0.91320    0.09802    0.12777    0.03623      0.63942      0.11761      0.04500      0.72334      0.10991      
52700   0.91223    0.09790    0.12760    0.03570      0.63966      0.11379      0.04471      0.72406      0.10857      
52800   0.91243    0.09785    0.12752    0.03631      0.63895      0.11803      0.04513      0.72309      0.11575      
52900   0.91220    0.09769    0.12742    0.03593      0.63977      0.11396      0.04460      0.72378      0.10771      
53000   0.91204    0.09766    0.12737    0.03572      0.63988      0.11407      0.04472      0.72425      0.10814      
53100   0.91178    0.09764    0.12735    0.03711      0.63828      0.11402      0.04626      0.72241      0.11068      
53200   0.91174    0.09762    0.12730    0.03645      0.63877      0.11596      0.04510      0.72323      0.11171      
53300   0.91145    0.09762    0.12731    0.03631      0.63877      0.11437      0.04559      0.72303      0.10714      
53400   0.91123    0.09749    0.12717    0.03601      0.63929      0.11267      0.04474      0.72409      0.10698      
53500   0.91122    0.09763    0.12725    0.03611      0.63915      0.11087      0.04502      0.72396      0.10676      
53600   0.91078    0.09750    0.12709    0.03715      0.63790      0.11140      0.04593      0.72190      0.10397      
53700   0.91041    0.09743    0.12697    0.03612      0.63898      0.10904      0.04486      0.72346      0.10198      
53800   0.90969    0.09727    0.12678    0.03591      0.63867      0.11057      0.04492      0.72290      0.10403      
53900   0.90927    0.09726    0.12675    0.03606      0.63814      0.11053      0.04496      0.72322      0.10248      
54000   0.90910    0.09700    0.12654    0.03589      0.63823      0.11440      0.04477      0.72236      0.11198      
54100   0.90853    0.09691    0.12644    0.03577      0.63839      0.11026      0.04485      0.72321      0.10865      
54200   0.90842    0.09682    0.12631    0.03624      0.63807      0.10987      0.04512      0.72283      0.10636      
54300   0.90804    0.09674    0.12622    0.03629      0.63807      0.10716      0.04504      0.72249      0.10422      
54400   0.90772    0.09667    0.12607    0.03641      0.63751      0.11067      0.04537      0.72219      0.10855      
54500   0.90781    0.09668    0.12605    0.03650      0.63773      0.10852      0.04562      0.72249      0.10258      
54600   0.90741    0.09654    0.12595    0.03598      0.63787      0.11078      0.04465      0.72229      0.10806      
54700   0.90736    0.09638    0.12582    0.03604      0.63822      0.10893      0.04508      0.72298      0.10100      
54800   0.90702    0.09630    0.12573    0.03704      0.63693      0.11027      0.04586      0.72177      0.10493      
54900   0.90645    0.09622    0.12556    0.03609      0.63779      0.10794      0.04509      0.72260      0.10348      
55000   0.90654    0.09622    0.12548    0.03590      0.63783      0.11111      0.04470      0.72283      0.10387      
55100   0.90590    0.09615    0.12539    0.03631      0.63729      0.10763      0.04543      0.72151      0.10154      
55200   0.90551    0.09601    0.12531    0.03617      0.63685      0.11162      0.04557      0.72114      0.10486      
55300   0.90511    0.09598    0.12529    0.03565      0.63710      0.11080      0.04462      0.72114      0.10640      
55400   0.90474    0.09601    0.12525    0.03597      0.63654      0.10970      0.04521      0.72001      0.10520      
55500   0.90502    0.09606    0.12527    0.03642      0.63607      0.11208      0.04572      0.71974      0.10675      
55600   0.90502    0.09600    0.12523    0.03623      0.63570      0.11871      0.04507      0.71920      0.11703      
55700   0.90509    0.09602    0.12516    0.03555      0.63731      0.11050      0.04473      0.72131      0.10603      
55800   0.90493    0.09600    0.12509    0.03568      0.63742      0.10742      0.04470      0.72180      0.10099      
55900   0.90431    0.09583    0.12483    0.03639      0.63631      0.10953      0.04553      0.72008      0.10561      
56000   0.90433    0.09577    0.12479    0.03681      0.63618      0.10781      0.04604      0.71986      0.10300      
56100   0.90342    0.09569    0.12464    0.03599      0.63605      0.11052      0.04505      0.71977      0.10311      
56200   0.90368    0.09570    0.12462    0.03569      0.63683      0.10843      0.04502      0.72048      0.10160      
56300   0.90309    0.09559    0.12455    0.03668      0.63522      0.11055      0.04560      0.71897      0.10536      
56400   0.90325    0.09551    0.12447    0.03611      0.63585      0.11313      0.04476      0.71955      0.10892      
56500   0.90301    0.09549    0.12442    0.03579      0.63657      0.10751      0.04491      0.72059      0.10151      
56600   0.90245    0.09538    0.12432    0.03609      0.63597      0.10692      0.04518      0.71971      0.10110      
56700   0.90200    0.09533    0.12418    0.03644      0.63520      0.10850      0.04510      0.71894      0.10434      
56800   0.90191    0.09523    0.12403    0.03614      0.63603      0.10482      0.04519      0.71985      0.09924      
56900   0.90186    0.09510    0.12394    0.03646      0.63579      0.10567      0.04520      0.71946      0.10509      
57000   0.90158    0.09485    0.12371    0.03626      0.63562      0.11135      0.04526      0.71922      0.10762      
57100   0.90096    0.09478    0.12357    0.03644      0.63500      0.11162      0.04534      0.71813      0.10815      
57200   0.90098    0.09470    0.12354    0.03566      0.63621      0.10862      0.04436      0.71991      0.10826      
57300   0.90063    0.09461    0.12346    0.03611      0.63581      0.10640      0.04536      0.71949      0.10192      
57400   0.90039    0.09461    0.12337    0.03548      0.63621      0.10725      0.04431      0.72035      0.10332      
57500   0.90037    0.09446    0.12323    0.03598      0.63586      0.10819      0.04515      0.71903      0.10148      
57600   0.90013    0.09443    0.12331    0.03674      0.63481      0.10835      0.04600      0.71791      0.10653      
57700   0.89954    0.09433    0.12318    0.03609      0.63522      0.10713      0.04491      0.71851      0.10344      
57800   0.89975    0.09431    0.12318    0.03576      0.63571      0.10785      0.04476      0.71931      0.10378      
57900   0.89941    0.09419    0.12307    0.03612      0.63554      0.10492      0.04489      0.71947      0.10023      
58000   0.89917    0.09416    0.12300    0.03632      0.63490      0.10795      0.04570      0.71828      0.10840      
58100   0.89895    0.09406    0.12294    0.03605      0.63511      0.10796      0.04516      0.71863      0.10881      
58200   0.89833    0.09397    0.12282    0.03513      0.63546      0.10946      0.04432      0.71961      0.11000      
58300   0.89830    0.09392    0.12275    0.03607      0.63499      0.10569      0.04526      0.71865      0.10201      
58400   0.89775    0.09382    0.12257    0.03534      0.63511      0.10919      0.04414      0.71922      0.10441      
58500   0.89717    0.09373    0.12248    0.03529      0.63503      0.10641      0.04440      0.71867      0.10164      
58600   0.89707    0.09362    0.12239    0.03591      0.63441      0.10741      0.04447      0.71809      0.10526      
58700   0.89683    0.09347    0.12223    0.03561      0.63503      0.10484      0.04453      0.71866      0.09944      
58800   0.89657    0.09332    0.12213    0.03525      0.63515      0.10724      0.04430      0.71915      0.10430      
58900   0.89618    0.09322    0.12200    0.03611      0.63422      0.10622      0.04508      0.71727      0.10251      
59000   0.89629    0.09313    0.12193    0.03604      0.63450      0.10689      0.04543      0.71737      0.10136      
59100   0.89545    0.09297    0.12181    0.03580      0.63422      0.10661      0.04469      0.71779      0.10270      
59200   0.89525    0.09284    0.12165    0.03610      0.63437      0.10286      0.04507      0.71762      0.09672      
59300   0.89496    0.09274    0.12154    0.03647      0.63380      0.10414      0.04559      0.71693      0.10096      
59400   0.89436    0.09266    0.12144    0.03614      0.63384      0.10288      0.04503      0.71667      0.09856      
59500   0.89442    0.09258    0.12139    0.03564      0.63363      0.11175      0.04457      0.71633      0.10881      
59600   0.89394    0.09245    0.12128    0.03591      0.63377      0.10531      0.04484      0.71710      0.10055      
59700   0.89374    0.09240    0.12120    0.03579      0.63372      0.10631      0.04474      0.71670      0.10286      
59800   0.89358    0.09223    0.12103    0.03595      0.63388      0.10491      0.04493      0.71683      0.10176      
59900   0.89319    0.09214    0.12095    0.03632      0.63326      0.10510      0.04498      0.71627      0.10110      
60000   0.89263    0.09198    0.12081    0.03646      0.63305      0.10332      0.04566      0.71588      0.10076      
60100   0.89232    0.09190    0.12069    0.03613      0.63283      0.10775      0.04513      0.71580      0.10634      
60200   0.89223    0.09188    0.12058    0.03572      0.63326      0.10790      0.04442      0.71651      0.10590      
60300   0.89158    0.09173    0.12045    0.03633      0.63264      0.10430      0.04529      0.71567      0.10010      
60400   0.89157    0.09168    0.12039    0.03642      0.63281      0.10268      0.04564      0.71615      0.09879      
60500   0.89140    0.09165    0.12031    0.03557      0.63300      0.10872      0.04441      0.71603      0.10757      
60600   0.89112    0.09163    0.12026    0.03624      0.63248      0.10523      0.04525      0.71557      0.10277      
60700   0.89075    0.09145    0.12009    0.03659      0.63227      0.10348      0.04577      0.71503      0.10070      
60800   0.89045    0.09123    0.11989    0.03600      0.63303      0.10304      0.04512      0.71568      0.09620      
60900   0.89024    0.09113    0.11980    0.03601      0.63254      0.10764      0.04498      0.71562      0.10460      
61000   0.88979    0.09105    0.11974    0.03598      0.63255      0.10480      0.04490      0.71565      0.10037      
61100   0.88947    0.09102    0.11972    0.03628      0.63200      0.10457      0.04539      0.71525      0.10113      
61200   0.88944    0.09096    0.11961    0.03556      0.63211      0.11199      0.04459      0.71551      0.11026      
61300   0.88900    0.09088    0.11957    0.03558      0.63249      0.10485      0.04427      0.71612      0.10045      
61400   0.88889    0.09089    0.11954    0.03559      0.63235      0.10520      0.04441      0.71549      0.10160      
61500   0.88863    0.09081    0.11945    0.03606      0.63152      0.10780      0.04494      0.71485      0.10483      
61600   0.88874    0.09083    0.11947    0.03611      0.63200      0.10329      0.04502      0.71516      0.09843      
61700   0.88824    0.09070    0.11935    0.03562      0.63230      0.10275      0.04439      0.71553      0.10015      
61800   0.88793    0.09057    0.11918    0.03650      0.63139      0.10294      0.04558      0.71471      0.09852      
61900   0.88760    0.09048    0.11913    0.03538      0.63192      0.10677      0.04418      0.71559      0.10361      
62000   0.88749    0.09041    0.11910    0.03571      0.63144      0.10833      0.04469      0.71508      0.10398      
62100   0.88690    0.09029    0.11898    0.03537      0.63169      0.10567      0.04446      0.71520      0.10158      
62200   0.88675    0.09016    0.11881    0.03542      0.63188      0.10474      0.04455      0.71522      0.10007      
62300   0.88637    0.09009    0.11872    0.03582      0.63133      0.10416      0.04459      0.71450      0.10030      
62400   0.88613    0.09002    0.11865    0.03582      0.63108      0.10576      0.04463      0.71394      0.10268      
62500   0.88599    0.08994    0.11850    0.03559      0.63152      0.10444      0.04458      0.71453      0.10042      
62600   0.88547    0.08983    0.11834    0.03558      0.63151      0.10194      0.04467      0.71469      0.09534      
62700   0.88517    0.08974    0.11821    0.03553      0.63154      0.10145      0.04463      0.71487      0.09483      
[...]
89400   0.83067    0.07182    0.09731    0.03468      0.61703      0.09822      0.04367      0.70053      0.09417      
89500   0.83024    0.07179    0.09718    0.03425      0.61695      0.10070      0.04352      0.70077      0.10017      
89600   0.83020    0.07166    0.09710    0.03436      0.61725      0.09838      0.04348      0.70090      0.09468      
89700   0.83016    0.07163    0.09707    0.03422      0.61696      0.10287      0.04351      0.70048      0.10146      
89800   0.82970    0.07154    0.09692    0.03433      0.61696      0.09953      0.04341      0.70041      0.09713      
89900   0.82960    0.07149    0.09688    0.03404      0.61698      0.10195      0.04310      0.70070      0.09950      
90000   0.82928    0.07142    0.09677    0.03398      0.61696      0.10153      0.04320      0.70083      0.09936      
90100   0.82958    0.07135    0.09672    0.03468      0.61701      0.09819      0.04372      0.70104      0.09450      
90200   0.82905    0.07135    0.09662    0.03471      0.61654      0.09836      0.04380      0.70048      0.09471      
90300   0.82876    0.07131    0.09657    0.03426      0.61660      0.10019      0.04337      0.70053      0.09790      
90400   0.82899    0.07125    0.09657    0.03432      0.61677      0.10081      0.04333      0.70061      0.09798      
90500   0.82879    0.07126    0.09657    0.03426      0.61681      0.09900      0.04323      0.70090      0.09627      
90600   0.82879    0.07116    0.09648    0.03428      0.61681      0.10057      0.04330      0.70070      0.09749      
90700   0.82865    0.07113    0.09642    0.03430      0.61619      0.10610      0.04323      0.69982      0.10481      
90800   0.82841    0.07105    0.09633    0.03435      0.61660      0.10084      0.04348      0.70055      0.09609      
90900   0.82802    0.07099    0.09624    0.03422      0.61658      0.09982      0.04348      0.70029      0.09575      
91000   0.82785    0.07100    0.09626    0.03393      0.61676      0.09895      0.04313      0.70090      0.09533      
91100   0.82804    0.07093    0.09620    0.03416      0.61662      0.10135      0.04334      0.70025      0.09807      
91200   0.82771    0.07086    0.09610    0.03435      0.61629      0.10103      0.04333      0.69975      0.09694      
91300   0.82760    0.07073    0.09601    0.03404      0.61657      0.10254      0.04315      0.70048      0.09845      
91400   0.82752    0.07069    0.09601    0.03455      0.61596      0.10305      0.04377      0.69945      0.10113      
91500   0.82714    0.07065    0.09600    0.03414      0.61617      0.10182      0.04313      0.69981      0.10125      
91600   0.82719    0.07064    0.09595    0.03401      0.61666      0.09941      0.04281      0.70056      0.09581      
91700   0.82695    0.07059    0.09591    0.03453      0.61575      0.10170      0.04347      0.69947      0.10134      
91800   0.82677    0.07056    0.09589    0.03409      0.61608      0.10149      0.04319      0.69961      0.09930      
91900   0.82699    0.07064    0.09593    0.03438      0.61558      0.10469      0.04334      0.69920      0.10310      
92000   0.82687    0.07070    0.09589    0.03401      0.61595      0.10320      0.04300      0.69954      0.09891      
92100   0.82681    0.07064    0.09583    0.03397      0.61636      0.10006      0.04295      0.70025      0.09690      
92200   0.82648    0.07063    0.09581    0.03422      0.61562      0.10197      0.04324      0.69949      0.10022      
92300   0.82657    0.07059    0.09579    0.03436      0.61562      0.10219      0.04349      0.69956      0.09915      
92400   0.82657    0.07057    0.09572    0.03457      0.61546      0.10239      0.04337      0.69911      0.10016      
92500   0.82599    0.07050    0.09562    0.03436      0.61550      0.10001      0.04339      0.69935      0.09744      
92600   0.82625    0.07048    0.09560    0.03407      0.61615      0.09948      0.04301      0.70011      0.09431      
92700   0.82614    0.07049    0.09558    0.03443      0.61562      0.10022      0.04355      0.69947      0.09624      
92800   0.82601    0.07043    0.09558    0.03464      0.61554      0.09814      0.04357      0.69910      0.09474      
92900   0.82578    0.07035    0.09553    0.03424      0.61566      0.10000      0.04349      0.69919      0.09826      
93000   0.82561    0.07031    0.09549    0.03436      0.61564      0.09802      0.04331      0.69910      0.09524      
93100   0.82568    0.07018    0.09541    0.03430      0.61574      0.10045      0.04339      0.69963      0.09706      
93200   0.82512    0.07005    0.09536    0.03416      0.61565      0.09900      0.04314      0.69916      0.09687      
93300   0.82502    0.07002    0.09531    0.03402      0.61566      0.10023      0.04283      0.69950      0.09836      
93400   0.82509    0.06998    0.09522    0.03434      0.61568      0.09869      0.04356      0.69928      0.09598      
93500   0.82487    0.06993    0.09517    0.03417      0.61582      0.09771      0.04336      0.69962      0.09375      
93600   0.82489    0.06992    0.09514    0.03396      0.61590      0.09975      0.04277      0.69974      0.09527      
93700   0.82502    0.06988    0.09507    0.03467      0.61563      0.09773      0.04367      0.69930      0.09237      
93800   0.82473    0.06988    0.09500    0.03444      0.61540      0.10011      0.04368      0.69895      0.09762      
93900   0.82472    0.06989    0.09497    0.03420      0.61561      0.10048      0.04336      0.69933      0.09592      
94000   0.82441    0.06983    0.09488    0.03442      0.61535      0.09943      0.04346      0.69886      0.09535      
94100   0.82425    0.06970    0.09479    0.03431      0.61550      0.09954      0.04333      0.69936      0.09678      
94200   0.82400    0.06962    0.09465    0.03415      0.61564      0.09942      0.04296      0.69940      0.09797      
94300   0.82405    0.06959    0.09459    0.03420      0.61584      0.09827      0.04324      0.69944      0.09394      
94400   0.82395    0.06959    0.09458    0.03439      0.61545      0.09932      0.04336      0.69905      0.09714      
94500   0.82370    0.06957    0.09456    0.03434      0.61547      0.09760      0.04345      0.69879      0.09402      
94600   0.82390    0.06965    0.09460    0.03430      0.61577      0.09581      0.04340      0.69939      0.09124      
94700   0.82385    0.06960    0.09452    0.03420      0.61542      0.10110      0.04333      0.69864      0.09841      
94800   0.82351    0.06955    0.09448    0.03438      0.61507      0.10040      0.04356      0.69812      0.09795      
94900   0.82376    0.06954    0.09443    0.03431      0.61589      0.09589      0.04355      0.69952      0.09080      
95000   0.82333    0.06946    0.09438    0.03449      0.61522      0.09792      0.04362      0.69904      0.09446      
95100   0.82348    0.06938    0.09431    0.03435      0.61529      0.10166      0.04354      0.69883      0.10031      
95200   0.82300    0.06937    0.09429    0.03431      0.61499      0.10035      0.04323      0.69869      0.09901      
95300   0.82283    0.06922    0.09420    0.03419      0.61539      0.09826      0.04339      0.69911      0.09444      
95400   0.82287    0.06915    0.09415    0.03405      0.61545      0.10068      0.04300      0.69918      0.09998      
95500   0.82274    0.06920    0.09421    0.03428      0.61502      0.10018      0.04351      0.69886      0.09699      
95600   0.82286    0.06916    0.09417    0.03400      0.61539      0.10132      0.04286      0.69930      0.09996      
95700   0.82272    0.06921    0.09419    0.03442      0.61507      0.09836      0.04353      0.69882      0.09453      
95800   0.82246    0.06915    0.09415    0.03424      0.61478      0.10147      0.04334      0.69865      0.10012      
95900   0.82226    0.06914    0.09411    0.03398      0.61504      0.09997      0.04291      0.69895      0.09724      
96000   0.82228    0.06912    0.09408    0.03391      0.61515      0.10014      0.04286      0.69893      0.09829      
96100   0.82215    0.06905    0.09403    0.03427      0.61495      0.09843      0.04347      0.69888      0.09639      
96200   0.82218    0.06905    0.09399    0.03429      0.61517      0.09673      0.04338      0.69898      0.09299      
96300   0.82213    0.06908    0.09400    0.03396      0.61532      0.09772      0.04312      0.69950      0.09556      
96400   0.82198    0.06899    0.09391    0.03407      0.61502      0.09976      0.04304      0.69905      0.09907      
96500   0.82171    0.06890    0.09382    0.03402      0.61509      0.09880      0.04306      0.69933      0.09728      
96600   0.82173    0.06889    0.09376    0.03393      0.61553      0.09621      0.04276      0.70011      0.09192      
96700   0.82141    0.06883    0.09376    0.03439      0.61447      0.09956      0.04347      0.69871      0.09790      
96800   0.82142    0.06878    0.09373    0.03424      0.61483      0.09842      0.04311      0.69944      0.09792      
96900   0.82128    0.06881    0.09370    0.03364      0.61539      0.09744      0.04237      0.70022      0.09579      
97000   0.82134    0.06872    0.09361    0.03418      0.61486      0.09965      0.04309      0.69936      0.09891      
97100   0.82118    0.06873    0.09358    0.03408      0.61481      0.09983      0.04310      0.69957      0.09878      
97200   0.82090    0.06865    0.09351    0.03388      0.61486      0.10006      0.04291      0.69915      0.09970      
97300   0.82101    0.06872    0.09352    0.03392      0.61483      0.10017      0.04282      0.69943      0.09961      
97400   0.82082    0.06860    0.09343    0.03442      0.61450      0.09865      0.04346      0.69886      0.09744      
97500   0.82088    0.06868    0.09341    0.03441      0.61456      0.09819      0.04354      0.69880      0.09637      
97600   0.82081    0.06874    0.09346    0.03425      0.61450      0.09857      0.04344      0.69900      0.09807      
97700   0.82075    0.06866    0.09341    0.03374      0.61512      0.09823      0.04266      0.69925      0.09756      
97800   0.82056    0.06855    0.09338    0.03406      0.61470      0.09874      0.04311      0.69827      0.09828      
97900   0.82067    0.06853    0.09333    0.03409      0.61471      0.10004      0.04313      0.69864      0.09874      
98000   0.82043    0.06841    0.09321    0.03410      0.61483      0.09888      0.04323      0.69893      0.09726      
98100   0.81990    0.06836    0.09312    0.03419      0.61428      0.09943      0.04346      0.69790      0.09823      
98200   0.81970    0.06831    0.09305    0.03398      0.61463      0.09723      0.04307      0.69830      0.09542      
98300   0.81964    0.06823    0.09302    0.03426      0.61413      0.09995      0.04341      0.69787      0.09935      
98400   0.81949    0.06817    0.09294    0.03401      0.61453      0.09839      0.04290      0.69864      0.09680      
98500   0.81960    0.06814    0.09292    0.03457      0.61408      0.09894      0.04371      0.69777      0.09458      
98600   0.81925    0.06801    0.09281    0.03436      0.61431      0.09752      0.04318      0.69815      0.09467      
98700   0.81917    0.06805    0.09283    0.03386      0.61466      0.09774      0.04294      0.69830      0.09543      
98800   0.81903    0.06798    0.09275    0.03433      0.61402      0.09950      0.04352      0.69709      0.09790      
98900   0.81915    0.06803    0.09275    0.03429      0.61383      0.10250      0.04322      0.69708      0.10327      
99000   0.81883    0.06804    0.09271    0.03403      0.61427      0.09772      0.04302      0.69790      0.09738      
99100   0.81897    0.06811    0.09274    0.03429      0.61427      0.09568      0.04339      0.69801      0.09381      
99200   0.81916    0.06807    0.09265    0.03455      0.61394      0.09950      0.04338      0.69738      0.10093      
99300   0.81887    0.06808    0.09265    0.03407      0.61436      0.09713      0.04304      0.69781      0.09655      
99400   0.81881    0.06801    0.09260    0.03390      0.61453      0.09753      0.04267      0.69846      0.09467      
99500   0.81835    0.06794    0.09249    0.03420      0.61399      0.09737      0.04316      0.69755      0.09519      
99600   0.81839    0.06795    0.09254    0.03414      0.61411      0.09646      0.04332      0.69742      0.09466      
99700   0.81815    0.06779    0.09238    0.03371      0.61455      0.09724      0.04268      0.69820      0.09423      
99800   0.81820    0.06775    0.09235    0.03397      0.61432      0.09813      0.04310      0.69779      0.09649      
99900   0.81784    0.06767    0.09230    0.03402      0.61412      0.09728      0.04325      0.69722      0.09493      
100000  0.81781    0.06764    0.09226    0.03405      0.61382      0.10040      0.04334      0.69715      0.09902      
100100  0.81795    0.06768    0.09228    0.03378      0.61449      0.09733      0.04274      0.69793      0.09634      
100200  0.81780    0.06760    0.09219    0.03404      0.61411      0.09855      0.04325      0.69738      0.09652      
100300  0.81768    0.06759    0.09224    0.03389      0.61385      0.10117      0.04289      0.69724      0.10016      
100400  0.81746    0.06755    0.09221    0.03393      0.61372      0.10056      0.04309      0.69741      0.09921      
100500  0.81741    0.06750    0.09212    0.03403      0.61388      0.09870      0.04312      0.69775      0.09711      
100600  0.81763    0.06751    0.09208    0.03427      0.61406      0.09696      0.04347      0.69793      0.09253      
100700  0.81739    0.06739    0.09205    0.03474      0.61341      0.09807      0.04408      0.69713      0.09515      
100800  0.81707    0.06734    0.09195    0.03402      0.61373      0.10037      0.04316      0.69771      0.10039      
100900  0.81722    0.06734    0.09198    0.03423      0.61406      0.09609      0.04332      0.69797      0.09302      
101000  0.81685    0.06726    0.09196    0.03424      0.61357      0.09828      0.04373      0.69716      0.09773      
101100  0.81654    0.06723    0.09186    0.03380      0.61380      0.09854      0.04306      0.69763      0.09622      
101200  0.81692    0.06723    0.09184    0.03476      0.61320      0.09878      0.04409      0.69686      0.09529      
101300  0.81676    0.06720    0.09183    0.03435      0.61364      0.09743      0.04358      0.69713      0.09468      
101400  0.81648    0.06713    0.09176    0.03418      0.61390      0.09522      0.04336      0.69733      0.09128      
101500  0.81650    0.06709    0.09172    0.03406      0.61374      0.09896      0.04302      0.69738      0.09775      
101600  0.81624    0.06707    0.09165    0.03402      0.61351      0.09983      0.04331      0.69693      0.09871      
101700  0.81605    0.06698    0.09156    0.03423      0.61340      0.09872      0.04337      0.69717      0.09588      
101800  0.81602    0.06696    0.09154    0.03413      0.61362      0.09757      0.04322      0.69715      0.09385      
101900  0.81567    0.06684    0.09145    0.03403      0.61362      0.09724      0.04320      0.69738      0.09260      
102000  0.81558    0.06681    0.09145    0.03373      0.61363      0.09961      0.04305      0.69718      0.09591      
102100  0.81562    0.06679    0.09137    0.03409      0.61342      0.09951      0.04312      0.69665      0.09603      
102200  0.81551    0.06677    0.09136    0.03406      0.61346      0.09869      0.04334      0.69686      0.09657      
102300  0.81518    0.06670    0.09136    0.03387      0.61351      0.09737      0.04300      0.69657      0.09479      
102400  0.81536    0.06676    0.09143    0.03374      0.61331      0.10125      0.04301      0.69629      0.09810      
102500  0.81540    0.06671    0.09133    0.03401      0.61339      0.09955      0.04302      0.69666      0.09793      
102600  0.81516    0.06673    0.09131    0.03403      0.61322      0.09870      0.04326      0.69664      0.09680      
102700  0.81524    0.06676    0.09131    0.03404      0.61334      0.09787      0.04300      0.69729      0.09586      
102800  0.81541    0.06685    0.09135    0.03412      0.61341      0.09668      0.04337      0.69734      0.09447      
102900  0.81512    0.06676    0.09129    0.03394      0.61334      0.09788      0.04309      0.69724      0.09563      
103000  0.81502    0.06676    0.09128    0.03368      0.61356      0.09732      0.04278      0.69741      0.09508      
103100  0.81491    0.06672    0.09121    0.03413      0.61308      0.09780      0.04321      0.69691      0.09656      
103200  0.81496    0.06674    0.09121    0.03435      0.61309      0.09566      0.04363      0.69646      0.09187      
103300  0.81481    0.06665    0.09117    0.03450      0.61285      0.09643      0.04345      0.69634      0.09320      
103400  0.81477    0.06668    0.09114    0.03460      0.61272      0.09623      0.04372      0.69620      0.09260      
103500  0.81463    0.06669    0.09112    0.03436      0.61292      0.09545      0.04358      0.69642      0.09210      
103600  0.81455    0.06659    0.09107    0.03367      0.61335      0.09875      0.04276      0.69666      0.09650      
103700  0.81440    0.06655    0.09103    0.03377      0.61312      0.09933      0.04278      0.69676      0.09686      
103800  0.81435    0.06652    0.09101    0.03413      0.61271      0.09979      0.04334      0.69588      0.10025      
103900  0.81413    0.06654    0.09100    0.03405      0.61277      0.09765      0.04314      0.69645      0.09531      
104000  0.81410    0.06653    0.09095    0.03374      0.61293      0.09953      0.04282      0.69640      0.09865      
104100  0.81407    0.06645    0.09088    0.03406      0.61266      0.10022      0.04291      0.69571      0.09979      
104200  0.81398    0.06644    0.09088    0.03456      0.61239      0.09705      0.04379      0.69558      0.09376      
104300  0.81348    0.06636    0.09083    0.03414      0.61226      0.09893      0.04331      0.69551      0.09677      
104400  0.81362    0.06638    0.09086    0.03399      0.61248      0.09914      0.04304      0.69565      0.09526      
104500  0.81338    0.06630    0.09080    0.03366      0.61293      0.09680      0.04271      0.69637      0.09125      
104600  0.81316    0.06626    0.09075    0.03390      0.61213      0.10112      0.04281      0.69517      0.09812      
104700  0.81310    0.06622    0.09071    0.03412      0.61205      0.10000      0.04305      0.69526      0.09724      
104800  0.81302    0.06611    0.09067    0.03396      0.61258      0.09692      0.04284      0.69614      0.09246      
104900  0.81287    0.06611    0.09066    0.03402      0.61227      0.09814      0.04324      0.69562      0.09585      
105000  0.81264    0.06603    0.09061    0.03381      0.61235      0.09848      0.04279      0.69586      0.09526      
105100  0.81238    0.06589    0.09054    0.03405      0.61211      0.09791      0.04289      0.69553      0.09468      
105200  0.81230    0.06583    0.09047    0.03345      0.61293      0.09621      0.04239      0.69637      0.09216      
105300  0.81220    0.06582    0.09046    0.03357      0.61265      0.09693      0.04275      0.69603      0.09345      
105400  0.81209    0.06582    0.09044    0.03358      0.61252      0.09733      0.04267      0.69580      0.09391      
105500  0.81201    0.06586    0.09048    0.03389      0.61194      0.09841      0.04295      0.69519      0.09693      
105600  0.81192    0.06584    0.09045    0.03389      0.61196      0.09789      0.04304      0.69520      0.09521      
105700  0.81211    0.06585    0.09044    0.03396      0.61162      0.10225      0.04291      0.69473      0.10054      
srun: Job step aborted: Waiting up to 32 seconds for job step to finish.
slurmstepd: error: *** STEP 6104166.0 ON gpu44 CANCELLED AT 2025-03-17T03:07:21 DUE TO TIME LIMIT ***
slurmstepd: error: *** JOB 6104166 ON gpu44 CANCELLED AT 2025-03-17T03:07:21 DUE TO TIME LIMIT ***
