64
energy=-409.577622 config_type=nep2xyz pbc="T T T" virial="-91.83727246760407 -5.981134380267853 -7.926070952889274 -5.981134380267853 -92.09225848557273 -10.738280502729603 -7.926070952889274 -10.738280502729603 -53.35393417315431" Lattice="9.483921 0.0 0.0 0.0 9.483921 0.0 0.0 0.0 9.483921" Properties=species:S:1:pos:R:3:force:R:3
C 8.74366 9.43119 8.16739 -4.536109 -2.486046 4.592995
C 0.91345 0.69376 2.22683 2.848916 1.152152 -3.734094
C 0.36297 0.71151 4.55783 4.818819 7.490687 -4.132555
C 9.16267 9.27848 5.13478 -4.786971 -5.469831 4.157946
C 0.53232 2.98087 0.9066 -1.962687 -1.896285 3.531008
C 0.38674 1.88499 1.80433 -0.062549 0.512282 -2.563933
C 8.91782 1.80065 4.20656 3.434943 1.459337 -0.801625
C 0.13184 2.24686 7.00628 4.331837 -2.375548 2.150158
C 0.20409 4.11285 1.88202 5.691307 -2.181612 -0.065371
C 8.63844 4.86972 1.77519 -5.259059 4.873499 0.001735
C 0.25343 4.11397 4.17544 0.675367 -1.295837 -1.412126
C 8.48374 4.38944 8.99348 0.213555 1.085248 0.015588
C 8.93015 7.98125 8.49454 -1.813181 0.14486 2.408173
C 1.59633 6.32816 2.77862 2.392857 -2.384118 2.604339
C 1.16628 7.4107 5.11487 3.374101 -2.155491 1.034964
C 7.87418 6.33582 7.02386 0.653593 -0.54199 2.258421
C 1.48715 8.69542 9.23692 1.766068 -2.637036 1.628508
C 1.93245 0.40282 1.19449 -3.107439 -3.010907 0.162749
C 1.93665 1.42761 3.97501 1.93175 -1.520786 0.83732
C 2.9445 1.07514 7.65694 -1.344618 2.218205 0.981704
C 2.95402 3.4965 1.3903 -3.998999 0.824949 -3.037049
C 4.26176 3.20944 1.58963 2.173857 1.280992 2.767571
C 3.24296 1.70828 3.85663 -4.135621 0.171393 1.49759
C 1.53693 1.52137 7.66559 1.125138 0.364759 -2.317462
C 3.16562 3.52367 9.24274 1.025712 -0.510864 2.820303
C 1.50374 4.5616 2.34411 -0.432485 1.07868 1.419527
C 2.81168 4.74611 5.48209 1.635897 2.899519 4.84786
C 3.77448 3.93653 7.04881 -0.429303 1.518943 0.777298
C 2.00795 7.03206 8.89516 -1.482392 5.289202 -0.387924
C 2.30891 7.14109 1.91335 4.917064 0.036717 0.278433
C 1.76643 6.49189 4.29881 -3.190108 2.126356 -3.01289
C 2.21079 7.17902 6.73465 -0.692744 -1.011624 -0.0723
C 5.09953 7.12219 0.02591 -1.624867 -4.672939 -2.745376
C 5.30973 7.59907 2.60519 -6.888006 -1.038732 -3.328512
C 5.14675 1.74611 5.07836 3.116351 -1.151079 4.818217
C 4.60159 0.78639 6.04512 2.069152 2.895713 -4.584203
C 4.14365 2.18558 8.33792 -3.720941 1.098149 0.234404
C 4.64721 3.59037 3.42015 1.897007 7.944661 -2.776512
C 4.60391 2.75748 4.37798 -4.949625 -8.052063 0.17735
C 4.56265 0.83748 7.33357 -3.304822 -0.061996 2.807547
C 4.05052 4.43734 8.85566 1.70612 5.127599 -5.078533
C 4.49614 4.59003 2.02825 0.514362 -1.69996 1.028912
C 5.07498 4.94569 3.79973 1.043118 -1.094179 1.093874
C 2.81701 6.00059 6.43459 0.625329 -2.437337 -1.539995
C 4.84028 5.7758 8.80503 -2.272874 2.648713 1.395733
C 4.01142 7.15269 2.02221 1.463943 2.15949 1.058614
C 5.02181 5.63949 5.03358 0.247328 0.24264 -1.059021
C 4.60806 7.02695 7.20477 -0.917381 -2.245037 2.135792
C 7.50333 0.24867 9.16925 4.599834 -1.465383 -3.39376
C 8.11325 7.91711 1.97619 -4.83723 -1.726576 0.293559
C 7.73035 0.5385 5.35389 -1.420843 -1.035669 -0.061816
C 8.19619 8.31752 5.61332 -1.86399 3.67235 -0.591071
C 5.40761 1.94737 8.68536 -0.020227 -1.720774 -1.085091
C 7.32876 2.30779 2.78266 1.042041 -2.197961 2.050372
C 7.51554 1.54652 4.14094 -0.450183 1.858562 -2.455331
C 6.84753 2.14545 5.34002 -1.798928 -3.877628 0.942563
C 8.33473 5.40146 0.53774 0.438107 0.315685 -3.851137
C 7.19023 6.00473 2.97631 8.814735 4.665509 -14.510307
C 6.63333 5.7582 3.96404 -6.896263 -1.849407 13.403587
C 8.32947 4.2303 7.7232 0.175179 0.036137 -0.556669
C 8.0475 6.8019 9.31108 1.941752 1.481354 0.526565
C 6.61998 7.42906 2.40275 5.76782 -0.509878 -1.12773
C 6.51153 6.94906 4.93031 -2.161653 -3.16759 1.820205
C 7.12938 7.17539 6.27668 1.88914 0.807822 -4.279092
64
energy=-405.642184 config_type=nep2xyz pbc="T T T" virial="-50.74461878460917 -13.032084502633163 -15.192730557381035 -13.032084502633163 -32.911176101274634 21.074254701906476 -15.192730557381035 21.074254701906476 -35.24921878035847" Lattice="9.483921 0.0 0.0 0.0 9.483921 0.0 0.0 0.0 9.483921" Properties=species:S:1:pos:R:3:force:R:3
C 8.64824 9.3281 8.6985 -0.573236 -0.120492 -0.617381
C 1.29146 1.25665 2.07777 2.707176 -4.145525 1.122797
C 0.42484 0.61338 4.84175 -1.361445 0.580929 -2.951452
C 9.15973 8.75812 5.00866 3.932643 5.905301 -1.544826
C 0.53894 3.05196 0.90321 -0.367298 -7.473539 -2.025781
C 0.08921 1.71617 1.65591 -0.323871 4.68797 -1.390932
C 9.15862 1.51802 3.96595 -1.338842 0.250927 1.753864
C 0.11251 1.68696 7.25441 5.477055 -1.007853 2.265852
C 0.36991 4.02968 1.71255 5.157692 0.702453 3.729885
C 8.67413 4.54488 1.891 -5.888575 3.833799 0.86307
C 0.31266 3.99054 3.9434 1.535398 1.463188 -1.416977
C 8.36949 4.25985 9.14769 1.401378 2.001382 -2.893883
C 9.08275 8.12206 8.80587 1.764285 -3.678045 0.853983
C 1.43927 6.17873 2.89868 2.136221 -1.188167 0.245483
C 1.2433 7.1088 5.3942 2.590924 -0.201845 -2.400375
C 8.01013 6.39268 6.85308 0.946521 0.262861 1.122135
C 1.80126 8.96336 9.39322 -1.013097 0.631947 3.47078
C 1.60139 0.11579 1.36283 1.693424 -1.802985 -4.413501
C 1.99133 1.47036 4.00768 2.833272 -0.269021 -3.675013
C 2.9814 0.88605 7.29559 -3.455441 2.096014 1.653275
C 3.16863 3.49808 1.96891 -1.374775 2.286262 -0.475562
C 4.27787 2.77086 2.05436 2.232652 -0.092973 1.8711
C 3.36276 1.95419 3.75788 -3.752135 -1.938755 4.611024
C 1.57674 1.4705 7.91557 -1.591902 -2.351071 -3.600798
C 3.61121 3.36119 9.25425 -1.369203 -1.545371 0.685079
C 1.0161 4.78552 2.79206 -0.527501 -0.995879 1.826532
C 2.58804 4.57522 5.8768 2.219684 1.157241 3.241624
C 3.63937 3.78567 6.99783 -1.026444 0.999337 -0.972094
C 2.14984 7.02749 8.55758 -0.204457 3.20158 -0.054111
C 2.55404 7.4809 1.93214 2.637921 -2.902325 1.555367
C 1.86874 6.42339 4.17609 -2.184367 3.162512 3.963692
C 2.3928 7.35826 6.34093 -0.80222 0.822874 2.398941
C 4.89138 7.20472 9.24353 -1.516633 -3.626043 -2.84657
C 5.41153 7.43908 2.46063 -2.160864 -1.050773 0.279653
C 5.28092 1.8599 5.25615 5.384883 -2.763479 3.102092
C 4.78674 1.00622 6.33784 0.640954 1.299694 -2.481845
C 4.19704 1.9803 7.58659 -0.732557 11.489367 -0.460696
C 4.30553 3.75283 3.47203 0.771449 -2.493346 0.23437
C 4.30945 2.63418 4.80586 -4.240127 0.629915 -6.934288
C 4.34126 0.67178 7.63987 0.799239 -9.483394 1.559878
C 3.73597 4.59843 8.95825 3.670174 4.263396 -1.225673
C 4.86496 4.55517 1.92321 -0.200202 -1.002661 0.327263
C 4.91139 4.74353 4.07348 -7.786488 -8.981924 -9.666058
C 2.63172 6.14938 5.7862 0.407183 -7.577041 -1.901306
C 4.56217 5.85661 9.18319 -2.417036 0.277987 -1.542109
C 4.09063 6.97782 2.24584 1.320342 3.185906 0.409052
C 5.26451 5.49647 4.83683 5.67796 11.717769 11.666006
C 4.35696 7.20017 7.31691 0.309171 -0.015717 3.152323
C 7.67219 0.62548 8.97054 -0.825167 1.82028 0.298209
C 8.04246 7.91993 2.28371 -0.870149 -0.41176 1.285287
C 7.56876 9.36952 5.52408 2.503504 -2.375827 1.000951
C 8.32182 8.10293 5.71441 -7.283434 -0.190663 3.144796
C 5.27467 1.38925 8.60154 -1.922768 0.788442 -0.907024
C 7.05498 1.90174 2.76061 1.195556 -0.700445 1.366961
C 7.6673 1.66793 4.05077 2.598806 1.326804 -5.555499
C 6.90937 1.96455 5.09359 -4.893644 -1.447802 3.073328
C 8.73785 5.53844 0.98348 -4.202575 2.391135 -6.268432
C 6.95715 5.88499 2.91744 1.231162 0.541589 -2.385429
C 6.57852 5.80498 4.17911 3.729578 -2.807261 -5.181483
C 8.5557 4.39394 7.74989 -0.882485 0.208343 3.066989
C 8.08176 6.33503 9.35844 2.723801 -0.726044 2.770551
C 6.92124 7.43103 2.89887 -2.811811 -0.13856 -5.110169
C 6.33166 6.53976 5.12541 -3.042321 2.845814 9.773382
C 6.95184 7.05329 6.38415 0.713059 -1.32643 -2.846305
64
energy=-420.910949 config_type=nep2xyz pbc="T T T" virial="1.5522989947145414 -3.7620606849706597 -7.795159815124862 -3.7620606849706597 -57.341841594452795 4.8825573738868675 -7.795159815124862 4.8825573738868675 49.907603168538586" Lattice="9.483921 0.0 0.0 0.0 9.483921 0.0 0.0 0.0 9.483921" Properties=species:S:1:pos:R:3:force:R:3
C 8.99993 0.49009 9.22602 0.45482 -2.718746 8.585079
C 1.0379 0.71754 1.45248 1.09808 -2.78477 -1.923759
C 0.73989 2.4595 3.7727 0.574382 -2.57585 -0.454612
C 9.45083 8.65097 6.22692 -1.397582 2.137626 -1.269573
C 8.33217 1.45997 2.7897 11.577991 -7.749876 -6.237141
C 0.40744 1.29888 2.5987 0.71891 1.542283 -2.678756
C 9.2913 0.72874 3.69427 -1.131297 -0.462224 3.476211
C 8.59992 0.30845 6.61303 2.326809 -1.028439 4.0467
C 2.66972 4.07782 2.55168 0.950822 -3.59589 -3.979516
C 0.65132 5.83651 3.03399 3.714209 -2.811824 -0.282259
C 8.98753 3.82487 3.92658 11.138089 6.273385 6.005211
C 8.7327 5.2194 8.56949 -1.780992 -2.973555 -0.44411
C 8.21305 7.48441 9.13403 5.082834 2.638788 -0.454098
C 1.79859 6.68322 3.73207 -2.453467 -0.211439 -2.900806
C 1.02388 8.58396 5.34019 2.333156 -2.931942 0.321334
C 6.68596 6.25998 6.8467 4.759671 0.237772 1.745377
C 1.86036 8.94031 9.09343 1.772262 1.826237 -6.358137
C 1.74861 8.82573 0.70309 -5.066779 4.485221 23.847572
C 2.92279 1.09963 4.98854 -1.143248 -0.004876 -1.917765
C 1.78759 0.47196 7.14713 5.682562 -1.089332 1.312772
C 3.24527 3.40055 1.03738 -6.842331 8.318637 -6.596083
C 4.06931 2.85055 1.68469 11.129222 -4.435424 5.567238
C 2.41472 1.68578 3.50811 -0.574983 0.140884 4.75843
C 8.75237 0.50984 8.0571 -2.623133 1.080738 -10.29576
C 3.90953 5.0944 7.87093 -3.476494 -1.320283 0.451989
C 1.73501 4.85838 2.76717 -3.461931 8.531863 -2.271532
C 3.93178 4.21229 5.80909 -3.439975 2.082189 -22.956058
C 4.18428 3.82901 6.82023 3.337587 -5.512736 22.253637
C 2.12981 8.58529 8.00256 -0.795336 -3.487725 -14.196635
C 2.74696 6.30988 2.05667 -1.506043 0.585388 2.665528
C 1.63729 7.32971 4.94494 2.515403 0.275323 -0.521833
C 1.40977 7.25038 7.39639 0.675703 -1.845295 5.063767
C 5.21547 7.0139 8.74551 -3.45238 -1.7533 4.821689
C 5.06544 7.53315 2.30113 -4.100914 -1.101727 -1.666884
C 5.09334 1.7912 3.82258 3.832165 5.076753 0.239391
C 2.66922 0.28081 6.05421 -1.211524 3.746278 -4.503211
C 4.23203 2.67672 8.11408 -4.263537 -1.505479 -3.383395
C 2.62852 3.14422 3.50287 4.610991 -5.826057 4.709184
C 4.04979 2.97891 4.4808 -2.060867 0.735171 -0.18214
C 3.27712 1.59674 7.88255 2.390086 3.784628 0.902536
C 3.94292 4.45818 9.09993 -1.036346 -1.595897 1.660327
C 5.02337 2.93061 2.61814 -1.116506 -4.160487 1.305338
C 6.48798 5.65669 4.55028 0.265815 0.801129 -0.461811
C 3.12598 6.50261 5.35308 -16.373462 -0.497322 2.145291
C 4.36203 6.39063 0.28377 6.449062 -1.577934 -13.519396
C 3.87978 6.68773 1.33313 -3.841301 3.531549 13.125901
C 5.15125 6.0991 4.75708 10.005195 -3.11711 -1.923498
C 2.49802 6.36713 8.09876 0.251774 0.270149 -2.518055
C 8.85393 8.65117 0.58506 -1.951341 -0.261007 -3.003068
C 6.28349 7.22183 2.25554 4.756827 5.272139 2.022826
C 8.32071 8.71932 4.94296 3.85612 -0.300339 -4.082796
C 7.3551 8.658 5.73652 -6.941753 -1.158716 5.638021
C 5.32951 7.47158 7.58704 4.333322 2.162844 -3.544766
C 7.45482 1.99307 3.39682 -8.679887 7.120057 4.566215
C 8.23773 3.25387 3.23533 -12.829807 -8.289024 -7.287407
C 6.51679 1.5936 4.25404 -6.469272 0.119609 0.342015
C 9.28224 4.11051 9.32443 -1.519749 3.744265 -2.078958
C 9.03096 4.97389 2.69117 -1.88573 3.115779 4.129316
C 7.9503 5.52937 4.24833 -4.609531 0.195345 -0.115962
C 7.69744 5.55074 7.63023 -0.05987 2.782005 -1.32952
C 9.27862 7.17756 7.82113 0.711112 0.085249 1.077553
C 6.92388 8.69514 2.70356 -0.6888 -4.575037 -1.436024
C 4.21382 6.84167 5.16292 10.205294 4.162658 -1.998481
C 6.6858 7.79952 6.58659 -2.724111 -3.602279 1.987357
64
energy=-432.604411 config_type=nep2xyz pbc="T T T" virial="-24.80821432192185 -2.904318004506197 -12.81566157929716 -2.904318004506197 -24.830474752497455 25.873318157523396 -12.81566157929716 25.873318157523396 -62.3618322365645" Lattice="9.483921 0.0 0.0 0.0 9.483921 0.0 0.0 0.0 9.483921" Properties=species:S:1:pos:R:3:force:R:3
C 9.41469 0.03928 0.25721 -5.031678 3.564616 -5.727419
C 0.86116 0.59626 1.01976 1.174911 4.976629 8.470649
C 0.49254 2.18047 4.02359 0.03471 -1.327069 0.035662
C 0.7742 8.52507 6.53324 -7.920835 1.345026 8.198785
C 8.5222 1.21092 2.45781 1.791683 -1.146217 1.73679
C 0.46045 0.89033 2.47085 -3.070285 0.046121 -1.845838
C 0.0257 0.77034 4.00969 -0.157243 1.807183 -3.391597
C 9.11725 0.43565 7.19829 -1.665806 -1.018578 3.014298
C 2.78547 4.5028 2.21395 -0.290507 -5.343767 0.309093
C 0.90013 5.8635 2.83818 -7.255619 10.717262 -0.600922
C 9.28098 3.35219 3.80778 3.687997 -2.353171 1.092178
C 8.03679 5.29934 8.7506 6.804456 -0.085841 0.701031
C 8.15304 7.6112 9.21498 2.207939 0.584129 1.776394
C 2.03762 6.33528 3.77684 0.778387 2.340912 -0.426637
C 1.30835 8.23858 5.43354 0.274291 1.576789 -6.664517
C 6.45996 6.27245 7.05356 1.660023 -1.881767 -3.520284
C 1.60984 8.73593 8.84885 1.001949 1.366932 4.277283
C 1.78429 9.20634 0.76615 4.560601 -4.35963 -6.137597
C 3.62514 1.24747 4.41333 -0.982808 -0.254408 0.506882
C 3.0343 9.42795 6.68862 -0.329413 3.860363 3.893655
C 3.65037 3.98516 0.8819 -1.584241 -2.823122 2.056657
C 4.44582 2.95578 1.58013 1.09584 -0.348087 3.119085
C 2.47857 1.58269 3.70567 0.795819 3.719038 -0.327091
C 8.41872 0.49466 8.47055 4.93109 -0.252215 -2.966651
C 4.04601 4.96442 8.22887 -2.995685 0.420828 -3.612673
C 1.54221 4.85731 2.89321 9.335389 -11.278988 -1.484973
C 3.6523 3.85152 5.75631 1.262522 -0.782456 2.060678
C 4.10602 3.63847 7.09403 -0.315471 -0.621045 0.239191
C 1.78707 8.62289 7.52792 5.774893 1.889089 0.833704
C 2.04165 6.86843 2.36685 0.758673 0.159404 1.445251
C 2.29365 7.84989 4.76517 1.48672 -4.551608 -0.479319
C 1.7206 6.80276 7.92843 -0.440984 0.991435 -1.574739
C 5.18076 7.00444 8.87939 -2.878465 0.290427 -0.542772
C 4.93759 7.44508 1.62217 0.901863 -2.193206 2.637083
C 5.27957 1.67014 3.94115 -9.771079 0.452975 -3.543518
C 2.22335 0.65695 5.7456 4.027662 -1.193764 -1.300371
C 4.09914 2.25386 7.79402 -0.109226 -0.071709 -2.901675
C 2.91707 3.36435 3.22737 2.81244 -0.532015 2.137455
C 3.63783 3.32906 4.57549 -2.942605 1.822865 -1.381063
C 3.85791 1.01935 7.43834 -1.551609 0.552501 -1.115766
C 3.26723 4.011 8.82366 1.564819 1.224648 4.819855
C 4.90041 2.50112 2.80885 -1.142423 1.430412 -4.329646
C 6.57383 5.46836 4.34788 -2.079274 3.864118 3.746997
C 3.21073 6.61666 5.26249 -2.511498 3.54875 -2.778848
C 3.99954 6.63335 0.16862 3.969486 1.489988 -4.079468
C 3.90604 6.57614 1.57081 -3.340951 0.889528 -0.531038
C 5.6522 6.34476 5.25401 3.446925 -4.146142 -2.753707
C 3.04591 6.43724 7.73461 -1.727129 -2.642252 1.632911
C 8.93085 8.37624 0.61357 -6.401747 -8.176985 -2.192296
C 6.09566 7.53388 2.28198 -0.129219 2.289453 -0.609404
C 7.41562 0.03142 5.04089 -1.386729 3.686691 -2.400582
C 7.48907 8.56137 5.82572 -1.884203 -2.197747 4.72477
C 5.56494 7.35775 7.24424 -2.486743 0.169744 6.423251
C 7.19326 2.98974 3.9851 -1.693972 -3.703046 -0.130011
C 8.12233 3.5062 3.09642 -0.387327 1.795147 -0.823193
C 6.50806 1.51801 4.15773 9.400692 0.795078 3.09415
C 9.32721 4.64741 9.26783 -6.107342 2.839643 -1.969537
C 8.47663 4.93268 2.71867 -0.713411 0.92022 3.000114
C 7.88726 5.58474 4.44083 0.192004 -0.794504 -3.568063
C 7.99832 6.47835 7.69438 -0.337823 -0.09681 2.314957
C 0.27728 7.43878 7.47233 0.260212 -3.992215 0.99435
C 6.86895 8.47153 2.7239 0.610413 -0.181498 0.100333
C 4.49559 6.96954 5.27006 1.597955 -2.049894 0.400326
C 6.89789 7.73923 7.09364 3.420987 2.971808 -4.082599
64
energy=-416.956788 config_type=nep2xyz pbc="T T T" virial="30.22867442268112 -18.564304636449727 3.642128023132316 -18.564304636449727 22.86404443239129 14.482164409421113 3.642128023132316 14.482164409421113 16.54960522674814" Lattice="9.483921 0.0 0.0 0.0 9.483921 0.0 0.0 0.0 9.483921" Properties=species:S:1:pos:R:3:force:R:3
C 9.2682 9.29098 9.06103 -6.695638 3.711818 3.027284
C 0.88997 0.2318 0.68178 -0.609874 -1.280915 4.457017
C 0.72223 1.44186 4.31708 1.180363 -2.749093 0.812261
C 1.00542 0.27967 6.98791 17.663755 2.036215 6.946044
C 8.22364 1.03601 2.92728 2.389347 1.041478 -2.216053
C 0.70347 0.56727 2.19144 -3.014146 -0.448986 0.06877
C 1.13992 0.03366 3.60516 -4.095348 5.864023 -4.15293
C 0.05768 0.56196 6.26598 -12.021629 7.345522 -6.428894
C 4.25051 3.65522 2.06377 -2.193732 6.087866 -8.618515
C 1.86343 6.25029 2.50173 -3.515519 13.987238 -1.323974
C 2.02537 1.86742 4.51399 -2.772062 1.629523 -3.682769
C 9.25591 6.1732 0.25039 -0.688774 -5.224663 -3.082859
C 7.57397 7.33927 8.72038 -0.909592 5.115031 8.907955
C 2.25336 7.12281 4.15285 0.822229 3.568713 -2.809222
C 0.51956 8.7674 6.15708 -0.656446 -7.971425 -3.152957
C 7.8831 6.00786 7.30016 0.208666 0.130382 -6.802439
C 0.49039 8.08867 8.89658 0.861127 -3.863791 1.178068
C 1.38497 8.35677 0.87651 -0.110707 -3.151234 -2.108767
C 4.3205 1.85116 4.99341 8.945396 0.762319 -1.676086
C 3.29188 0.94285 7.58439 1.182819 -0.994456 -0.399531
C 2.67195 3.70287 0.59083 -0.354547 -0.614888 -0.043924
C 4.12612 2.48315 1.51271 -1.112408 -2.084473 -2.661877
C 3.42463 1.04774 5.28861 -8.310601 -10.459759 2.305353
C 8.60176 0.44166 7.68344 -0.335444 1.402094 2.608438
C 3.46825 5.16963 7.52377 2.164662 0.469092 -0.457572
C 2.26466 5.14867 2.53612 3.263761 -13.522395 2.744136
C 3.03469 2.36723 5.43356 2.983831 0.624265 9.79407
C 3.30848 3.59437 7.43077 1.252626 4.867098 2.125305
C 0.98775 8.60391 7.77155 7.626136 -2.398062 -5.653324
C 1.93254 7.10902 1.41316 -1.39536 4.158503 -1.72901
C 2.0652 8.66575 3.75533 3.522078 -8.973223 3.206101
C 1.94893 7.04904 7.82585 -6.552037 1.778806 -0.886288
C 5.01243 5.70283 8.02895 -4.10374 0.888428 0.876609
C 5.15659 8.21958 1.08651 -2.135396 -2.925863 1.65129
C 5.38326 1.85828 3.81301 -16.55659 7.84607 1.301905
C 2.40653 0.6453 6.57861 4.032867 -0.638711 2.352994
C 4.58065 2.97132 7.2842 1.022913 -2.066581 -1.145607
C 2.63464 4.82449 3.82023 4.447622 -3.989493 4.834695
C 2.71398 3.16664 4.60343 -6.219392 12.519444 -11.743163
C 4.38755 1.66856 7.38435 0.140807 -0.240488 2.613502
C 3.07834 3.56684 8.85794 -1.85651 1.004612 -0.294259
C 4.68153 3.14915 3.03506 7.442472 -6.823604 11.152109
C 8.21268 5.00975 4.56325 -5.489893 1.502471 1.093228
C 3.56629 5.80498 4.60792 -1.272028 -0.874592 -1.978697
C 4.90295 6.74244 8.92573 -1.39493 -2.165353 0.773939
C 4.19171 6.93846 0.97818 3.454943 1.741706 -3.349243
C 4.94612 5.74808 5.39112 -5.492095 -11.370168 -12.337131
C 2.82483 6.53189 7.00972 5.029402 -1.942953 1.525182
C 8.22504 8.25034 0.04677 -0.629135 -0.020931 1.099445
C 5.68031 6.48592 2.14256 -1.080371 4.804985 -1.387016
C 6.06659 9.32499 5.36426 2.495017 0.518468 -0.974432
C 7.17655 8.85892 5.93281 -6.329854 1.431149 -5.840693
C 4.29316 7.32681 6.8267 -3.599567 1.433694 4.394705
C 7.17754 1.84682 3.00998 5.100736 -2.900931 0.426842
C 6.43237 4.1007 4.03914 -0.350738 1.467964 -0.321533
C 6.44629 1.40174 4.14171 7.434585 -5.251338 1.288932
C 8.95375 4.48217 9.27753 0.571284 5.447084 1.277012
C 7.38857 4.63791 3.30516 2.195453 1.066835 2.987533
C 7.44059 5.77399 5.82763 4.951085 -3.064892 -0.55618
C 7.60934 7.42473 7.48397 -1.015491 -1.749912 -4.602169
C 0.20677 6.75117 8.15468 4.238137 -1.675738 3.988465
C 6.03567 8.05946 2.05326 1.233109 -2.642029 0.762917
C 5.04681 6.73786 5.97513 3.843716 9.572697 5.602025
C 7.99419 9.09996 6.84916 1.168643 -1.744654 4.232978
64
energy=-421.435557 config_type=nep2xyz pbc="T T T" virial="-76.92981723446881 6.280295187159205 -32.57688630109511 6.280295187159205 -74.2247303498237 -3.4461553064073898 -32.57688630109511 -3.4461553064073898 -91.71406543006519" Lattice="9.483921 0.0 0.0 0.0 9.483921 0.0 0.0 0.0 9.483921" Properties=species:S:1:pos:R:3:force:R:3
C 8.75983 9.033 8.30033 0.359872 -1.121856 -2.753018
C 0.51978 0.22418 0.45586 -0.62128 -1.285859 3.738508
C 0.81175 0.14454 4.84064 -1.261204 0.24788 2.41783
C 0.77782 1.35579 7.24205 -3.223088 2.236722 -2.978215
C 8.39118 1.78872 1.98146 3.61894 -2.818084 0.979126
C 0.28727 0.77087 2.02742 -2.889397 -2.463878 -2.425474
C 0.39486 8.75988 2.84354 3.829512 3.502509 1.712333
C 0.0542 1.76412 5.90406 3.293002 1.241558 3.726485
C 3.75596 3.16698 2.65285 1.866407 -0.974338 3.900368
C 1.83506 5.30139 2.00482 -0.834745 3.691583 3.379045
C 0.90318 1.76239 4.71955 0.140685 -2.232932 2.864913
C 8.50619 5.61096 0.96379 1.655687 0.596152 -4.820361
C 8.16599 7.03117 9.46534 0.321772 -2.445634 1.055048
C 2.68352 7.0309 4.04779 -1.736171 -3.332843 1.861353
C 0.02571 9.11626 6.3001 2.871813 -0.012268 -1.056158
C 8.42904 5.60945 7.44684 6.657624 -1.334597 -2.981036
C 1.26344 7.56138 8.55036 -0.217135 0.942927 -3.843779
C 0.944 7.97906 0.53557 4.777037 0.729354 -1.889244
C 3.60123 1.86758 5.02377 -2.267698 -8.090787 3.504552
C 3.56035 1.07748 7.409 2.750948 0.817546 -0.394004
C 2.43818 4.67856 1.12731 5.047243 -4.153092 -1.276193
C 3.6887 3.8619 1.62244 -3.149305 3.364551 -3.26752
C 3.7925 0.38318 5.45839 1.978694 2.472632 -1.114831
C 8.5518 0.51825 7.03949 1.910563 0.447601 0.067023
C 4.14537 4.116 7.5879 3.722485 -0.427145 -1.713599
C 2.14375 5.75572 3.29885 0.945947 -0.823597 2.043895
C 2.32148 2.35128 5.23629 -2.685117 -0.207159 -1.404489
C 3.19459 3.51651 8.27609 -3.144191 -1.44733 0.624388
C 0.37083 8.32678 7.56211 0.038783 0.080666 0.17092
C 2.34012 7.64258 1.29782 -4.548584 0.772952 -1.254996
C 1.37149 8.73612 3.97965 -1.504845 -2.746041 -3.733958
C 2.06364 6.80079 7.58745 -3.058753 -2.898784 -0.609341
C 6.44711 4.16004 7.73847 -3.042947 0.610601 -2.672669
C 5.93068 8.03533 1.50752 0.102547 4.943215 -0.453786
C 5.45693 2.11286 4.51792 1.897878 0.214219 -2.147298
C 3.15183 9.38241 6.4954 0.581653 2.011928 4.211901
C 5.3699 3.24727 7.26777 -1.575723 -1.734114 3.751104
C 2.46752 4.67149 4.41436 0.743366 4.562143 0.349138
C 3.72689 3.03815 4.4825 -1.931226 5.047278 -4.990262
C 4.77854 1.99979 7.8428 -2.266076 -2.223987 -2.552874
C 2.20924 2.58792 8.57464 2.233258 0.920668 -0.904833
C 4.96937 3.46338 3.98846 3.616363 0.204852 2.212553
C 7.95661 5.08385 3.95457 -0.486196 1.60639 3.682701
C 3.2912 6.16279 5.3079 -4.226124 -0.24538 -2.290892
C 5.26132 7.77231 8.17564 -1.881258 -4.257472 1.168809
C 4.9682 7.49776 0.30667 0.631074 3.839122 -6.075529
C 5.69619 4.61926 4.89965 -1.887121 3.272978 -2.137281
C 3.14829 6.41617 6.76981 2.487448 1.665088 -0.071465
C 8.86246 8.491 0.14019 -2.422644 -2.165635 0.35597
C 6.06447 5.34597 1.59896 1.062445 1.091403 3.298294
C 5.97938 0.29442 5.46266 3.18433 -4.701361 -1.039045
C 6.87048 8.52689 5.71589 -1.088931 2.583754 2.373008
C 4.61007 6.65279 7.09787 1.214084 -0.473245 2.412128
C 7.69544 1.19588 2.91689 -3.806437 -0.73 1.001
C 5.64818 5.6983 3.69395 0.945369 -3.146061 1.950515
C 6.52837 0.56536 3.41223 0.791098 2.185358 1.426798
C 9.34379 4.59822 0.4259 -3.101972 3.356082 1.953125
C 6.8357 5.13506 3.12754 -2.640719 2.894779 -3.678399
C 7.73004 5.67074 5.24392 1.48087 -2.413203 -2.400839
C 7.62698 6.55801 7.95186 0.484269 6.605825 2.774247
C 0.51793 5.98208 7.25605 -1.518277 0.702331 1.102708
C 5.44733 6.86413 1.34314 1.556595 -9.628187 2.520033
C 5.59989 5.2706 6.71822 -2.435309 0.515504 0.072961
C 7.93963 7.81065 6.93215 -3.347187 0.556719 0.268609
64
energy=-436.864394 config_type=nep2xyz pbc="T T T" virial="-32.790535322414875 -5.431257554288887 4.9196030749021915 -5.431257554288887 -16.04425458610852 -22.697812630565988 4.9196030749021915 -22.697812630565988 -27.19719883304285" Lattice="9.483921 0.0 0.0 0.0 9.483921 0.0 0.0 0.0 9.483921" Properties=species:S:1:pos:R:3:force:R:3
C 8.94618 1.04427 6.87636 1.096207 2.178837 -3.85863
C 0.0667 9.1512 0.48314 -5.291779 4.424264 8.517677
C 4.09272 1.47336 4.28209 0.857698 5.611268 -0.607512
C 0.72315 1.20791 7.34962 -2.691702 -0.485406 -0.958506
C 8.89561 8.78113 3.09258 5.667003 -1.984842 -2.392093
C 0.95212 4.27213 8.82345 2.274774 -2.331467 -0.329089
C 9.1284 9.46577 1.74948 -0.839696 -3.780257 -2.575469
C 0.50066 2.042 4.25957 1.083217 0.812312 6.454349
C 7.21667 4.0339 2.54141 -1.074928 2.115305 1.528563
C 1.74901 7.45951 1.34693 0.695329 -3.030777 -1.025974
C 1.22861 3.06755 5.18049 -1.018488 -2.587495 -3.640723
C 7.44748 3.3339 8.02244 -3.131284 -1.45613 -3.679962
C 6.86545 5.05312 9.41653 -0.040569 -1.855095 4.859731
C 0.79849 5.40259 2.14391 -0.314297 -0.056202 -0.259475
C 8.88897 1.56878 5.3774 -2.034294 -0.112284 1.053282
C 9.0808 5.64423 5.01926 3.131372 -2.364845 1.267763
C 1.23393 6.81235 7.10681 -3.311083 1.908715 -0.868709
C 0.74778 8.53512 9.15329 3.069542 -4.066058 -6.354862
C 3.38118 1.36318 7.18894 -7.643718 0.593766 4.014694
C 4.39737 8.80537 9.0152 -0.474319 -0.673596 -3.315711
C 3.08796 5.68002 2.1486 0.644618 -1.008109 -3.307518
C 3.91179 4.14281 0.79733 2.162188 -0.847557 -2.911085
C 4.32917 0.20987 4.89454 8.575133 -4.540636 6.857043
C 1.91323 0.91425 7.62457 4.482798 0.716287 -0.772796
C 3.39819 5.15694 6.70117 8.827938 2.889419 -16.43848
C 1.6705 5.67954 1.17195 2.013641 2.706382 3.679479
C 1.06096 5.78639 5.06897 -2.522795 -0.608457 1.234111
C 2.8345 5.08384 7.72187 -4.190041 -5.590825 14.625731
C 1.65621 0.21601 4.65863 3.713461 1.707207 -2.050374
C 2.34584 7.8733 0.20851 -2.003235 0.949535 -0.712224
C 3.26093 0.44953 4.26692 -19.35424 -0.187488 -6.213837
C 2.38378 6.22274 7.27274 -1.917762 4.287691 -0.750333
C 5.16576 2.35492 6.31546 1.25123 -3.026505 -5.168838
C 5.37267 5.87757 0.19272 5.326955 1.676172 0.195712
C 6.61613 2.4378 3.86804 -1.762925 1.544463 -0.77479
C 3.17982 2.43332 8.25038 3.185404 3.484078 0.27533
C 5.88692 2.66516 7.31418 4.110589 4.188009 7.072329
C 1.92633 4.13662 5.49092 1.064343 1.485211 -4.004642
C 3.4572 4.61126 5.2805 1.133403 -0.717094 3.737432
C 4.34374 3.16868 8.96554 -3.859218 -0.687469 1.359091
C 2.2244 3.99718 8.33568 -0.647322 -2.706267 1.745222
C 3.89339 1.16053 5.94362 4.250336 2.081399 1.144931
C 7.27911 4.14497 1.22099 -2.161962 2.843199 -0.275512
C 4.61414 8.41026 4.52021 1.650768 0.606664 0.100219
C 5.49662 8.0396 8.50409 -2.886961 3.583068 -3.94084
C 3.17726 8.33441 8.74364 1.248748 0.586641 2.531969
C 6.7635 4.48738 5.0291 -1.394148 1.413135 0.723212
C 5.21933 6.77089 6.18903 0.885457 3.309847 -1.036635
C 0.08484 7.73605 7.80265 8.232429 -1.15652 0.447381
C 4.96295 4.05406 4.84461 -2.879736 0.843576 1.304699
C 8.19475 0.30098 3.57335 -2.766477 4.675548 8.842962
C 7.31045 1.5776 4.62447 5.062925 -2.180186 3.208075
C 5.97329 7.68583 0.22401 2.782997 -5.861508 0.236521
C 7.63191 9.38706 2.51006 -2.272309 0.657632 -7.436173
C 4.59535 7.23795 4.89951 1.885323 -3.237068 4.70702
C 5.97419 1.9904 5.13841 2.317677 0.940875 -3.390213
C 9.2421 3.9737 9.08689 -3.049952 2.815865 -1.257745
C 7.01674 4.88893 3.80213 1.289411 -2.426248 -4.515094
C 8.29101 4.58752 5.25467 -1.866829 2.090196 -0.338948
C 7.12414 7.05915 8.50486 4.053281 2.073919 0.108016
C 7.93234 4.5758 8.45119 -0.933562 -3.836675 1.084913
C 4.51065 5.43275 1.0834 -4.6207 -2.889836 0.296167
C 6.05546 7.70807 7.08888 -2.102317 -3.616597 2.515078
C 8.52443 7.442 8.48338 -6.967551 -1.890988 -0.565912
64
energy=-414.663035 config_type=nep2xyz pbc="T T T" virial="-82.92834041317244 -2.321452508867711 23.072081759421007 -2.321452508867711 -65.81046861464094 -14.854820309272444 23.072081759421007 -14.854820309272444 -62.08914329306037" Lattice="9.483921 0.0 0.0 0.0 9.483921 0.0 0.0 0.0 9.483921" Properties=species:S:1:pos:R:3:force:R:3
C 0.24789 0.42626 6.69015 -0.795137 -0.114473 -2.360683
C 0.14224 0.09419 1.23411 3.032457 -3.233084 -4.914019
C 3.92434 0.41142 4.08931 -5.6997 -1.789 -0.422893
C 1.42661 0.4801 7.1195 7.431296 3.249374 6.158318
C 8.9588 0.35314 3.73389 -3.321038 2.009149 2.79847
C 0.34853 3.76052 8.32837 -1.980154 3.941323 2.442486
C 8.91568 0.21869 2.25929 -3.492806 -0.990639 5.760476
C 9.33207 2.61806 6.05179 1.993682 -1.328549 -3.496527
C 7.11989 3.50629 1.72153 -1.010924 3.935127 3.228196
C 1.36715 7.30605 1.17212 -9.209051 -3.294232 1.412141
C 0.41055 3.88832 5.44397 -7.968055 -2.902939 0.981955
C 7.36441 3.48487 7.9135 -5.070773 -3.780902 3.918776
C 7.0237 5.47218 0.17502 -1.039122 -1.186714 1.727344
C 0.6288 5.05447 1.55079 -0.136854 0.346847 0.804297
C 0.01501 1.20958 5.44746 -4.016695 0.968145 2.41018
C 8.35465 4.71035 5.66833 -0.338377 3.007657 0.713374
C 9.47682 6.46298 7.71217 -0.299311 6.231308 -2.4091
C 0.39287 8.00309 0.32061 -2.460923 3.348495 2.184891
C 3.65449 2.22817 6.99733 0.830196 -1.035301 -1.84131
C 4.86236 8.76533 0.26526 -3.564816 -3.978461 -1.248648
C 3.69274 6.23127 1.79976 -0.807598 2.744777 -1.601004
C 4.50812 4.23757 8.96021 2.004207 0.727938 1.438747
C 5.20755 0.04448 3.55855 2.97462 0.566731 1.344284
C 2.51415 1.06411 8.1709 -1.198286 -1.525579 -3.111015
C 4.46893 5.38445 6.46319 0.50634 -2.288212 -1.503136
C 0.85617 6.15417 2.21268 -0.833753 0.723536 -2.525235
C 0.0168 6.32732 5.2737 -1.301052 -1.780173 1.822259
C 2.62708 4.90314 6.74635 -1.646 2.983232 -2.213611
C 3.15753 8.90441 4.89599 1.99565 1.602394 -3.776037
C 2.59334 7.27623 1.44353 10.703055 1.454244 -1.246009
C 2.10607 0.25607 3.49494 4.732347 -0.853446 2.879987
C 1.70986 5.83079 7.34883 -0.70771 -1.878378 2.572004
C 6.35457 1.92082 7.00338 2.296574 -0.867393 -4.223603
C 5.60591 5.60737 9.08007 -0.394716 -0.162624 1.171764
C 6.28204 2.30418 5.27785 -4.522394 -1.717899 2.622864
C 3.70958 2.01713 8.44504 -1.95242 -1.817748 -3.226725
C 5.367 1.77696 7.89962 -0.600771 1.676714 5.853322
C 1.64061 3.87958 5.72814 7.818738 2.670115 0.302402
C 2.77367 5.21323 5.28507 -0.664376 -1.861794 1.247223
C 6.01028 3.05155 8.57161 -0.525289 1.283897 -1.610176
C 0.69436 5.52242 8.40001 3.083688 -2.308538 -2.513948
C 4.92642 1.74853 6.10454 -1.738794 2.332623 0.88899
C 6.69202 5.04123 1.57146 2.33222 -2.354038 -2.911735
C 5.52513 8.35111 4.36723 -1.838106 -1.946674 -0.423661
C 4.16825 7.5803 8.95856 2.573348 3.817925 2.330419
C 3.20331 8.55786 0.43353 3.771066 -2.071831 -0.408848
C 6.17449 5.27166 6.21795 -0.844657 0.310242 -1.926331
C 5.17723 6.65475 6.8008 -1.469561 -2.42014 -3.971769
C 9.15049 7.91638 7.68877 -0.722563 -3.890934 2.602124
C 4.98436 3.61523 5.99675 -0.178894 1.5393 -0.950113
C 7.74162 0.7629 4.75468 8.420745 -2.946337 -3.008287
C 6.53784 0.73743 2.77889 -2.071659 -3.9931 0.839055
C 5.30814 6.87261 0.92018 -3.282043 -0.23312 -1.615697
C 7.38868 8.95 2.38114 -0.311162 4.644469 0.270207
C 4.49017 7.55529 4.74251 0.32888 2.6153 0.814895
C 6.52354 1.07441 4.22876 -0.077617 2.937146 -0.976086
C 8.60524 4.412 8.83355 -1.279703 -3.269267 -2.42093