 -6.4951176e-04   2.3439644e-04
 -4.3735126e-04   8.8322377e-05
  1.9732642e-03   4.6733403e-05
 -4.8982049e-04   3.7450020e-04
  1.4037766e-04   1.4068538e-04
  8.9913962e-04   1.0572284e-04
 -6.7439467e-01   8.9744353e-05
 -2.1495934e-01   4.0925872e-05
  2.0349817e-04   7.0487986e-05
  2.4112097e-03   1.3003296e-04
  7.7994779e-04   2.7937815e-04
  2.7675662e-04   1.2091036e-04
 -1.2849194e-03   1.3342479e-04
  1.5698882e-03   2.2991210e-04
 -5.0947798e-04   1.2246282e-04
 -7.6087815e-04   6.7348723e-05
 -8.3136337e-04   4.7378726e-05
 -3.5238991e-04   9.6335520e-05
  3.8304119e-04   3.1829892e-05
 -1.5607193e-03   1.3172615e-04
 -3.8941398e-05   1.2050047e-04
  2.4144519e-04   8.1365222e-05
 -5.0890649e-05   9.3101633e-05
 -7.8161265e-04   2.5790099e-05
 -6.7166262e-04   1.3732396e-04
  3.4289736e-01   1.8988250e-04
  1.9196568e-03   1.9165852e-04
  4.1604321e-04   1.6044664e-04
  2.6407017e-04   8.3406099e-05
  3.6629525e-04   1.6475514e-04
  3.0123821e-05   7.2633025e-05
 -4.1456437e-03   7.9108329e-05
  5.6784213e-01   9.1269088e-05
 -1.0053718e-03   1.3585617e-04
  1.0131655e-03   1.2250163e-04
 -5.4633466e-04   5.9854839e-05
  1.5182940e-03   1.1641643e-04
 -1.9413518e-04   9.4107454e-05
 -2.9443828e-03   7.8840676e-05
 -1.5939110e-03   1.3165377e-04
 -1.1975913e-03   2.5038217e-04
  5.8881706e-05   1.8504115e-05
 -8.3446968e-04   1.4299199e-04
 -6.7502941e-04   1.3137433e-04
 -2.7692009e-04   2.0280266e-04
  4.9309939e-04   1.0425538e-04
 -2.8210797e-03   1.1520679e-04
 -9.5678399e-05   1.4219985e-04
  1.2618977e-04   3.0128436e-05
 -4.4132938e-04   1.9635960e-04
  4.3447635e-01   8.9653506e-05
 -5.3227232e-03   1.6416036e-04
  3.5778852e-04   1.0966000e-04
 -3.1840783e-03   1.9544776e-04
 -3.8911021e-01   6.6874229e-05
  5.8932794e-04   1.3611355e-04
 -2.6021234e-04   9.6209544e-05
 -3.8007637e-03   1.5526936e-04
  6.1224210e-03   6.6034474e-05
  6.3623651e-04   9.4042756e-05
  7.5030135e-04   1.7827474e-04
 -7.4201298e-04   8.2337290e-05
 -1.1309357e-02   2.0907848e-05
  4.6306401e-03   1.6133762e-04
  3.5541394e-05   1.7591439e-04
  8.0070822e-03   1.0627473e-04
 -6.2119063e-05   7.1488153e-05
  5.5476488e-04   9.7629607e-05
  6.9303010e-03   6.1532985e-05
 -2.7501687e-01   3.5828558e-05
 -5.4097965e-02   5.6496665e-05
 -2.7308438e-03   1.2231333e-04
 -1.6108271e-03   2.3608989e-05
 -1.6836751e-05   1.1111875e-04
  9.6604659e-04   1.1196278e-04
  7.0273777e-04   1.3707827e-04
  1.6724880e-01   1.4676823e-04
  5.3125368e-03   2.8935798e-05
 -1.3556795e-03   6.4530614e-05
 -1.5490033e-03   1.2559711e-04
 -3.4511490e-03   1.0683626e-04
 -4.8364798e-04   9.1732254e-05
  2.7675621e-04   1.9873069e-04
 -3.3785785e-03   1.1864521e-04
 -2.0957910e-03   1.4336215e-04
 -3.4218951e-04   1.2451460e-04
  1.4503856e-02   3.8905215e-05
 -2.0914897e-04   2.3659351e-04
  9.9075830e-01   6.9883274e-05
 -1.2781870e-03   2.8276751e-05
  5.8082031e-04   6.0701492e-05
  1.0706414e-01   3.7284780e-04
  7.4895788e-03   2.2217716e-04
 -8.2773725e-03   1.3326350e-04
  2.4054012e+00   4.6558780e-05
 -1.1759974e+00   1.6367903e-05
 -1.8956856e-01   1.1325735e-04
 -1.1626194e-04   9.5222611e-05
  7.1763974e-01   9.4593750e-05
  1.2032403e-01   2.2253054e-04
  5.6973653e-04   1.6871121e-04
  1.1904044e+00   8.6936809e-04
  1.9753193e-02   2.8746921e-04
 -2.0711390e-04   4.1428648e-04
  2.1691937e-02   2.2581813e-04
 -3.8961726e-01   4.1139295e-04
  6.7999214e-01   1.8162887e-04
 -3.0601802e-04   5.6819448e-05
  7.8754476e-04   1.5392216e-04
  1.1389929e+00   4.3975066e-05
 -3.2480359e-03   1.1887346e-04
  5.9002835e-01   6.5051124e-04
 -1.8860642e+00   1.4867398e-04
 -3.2711443e-01   1.3880519e-04
 -6.4949036e-01   3.5815163e-05
 -6.6939817e-04   1.6055605e-04
 -8.1506640e-02   3.3882502e-04
  1.3475041e-03   3.0237369e-04
  7.1671110e-04   5.9844853e-05
  5.7451648e-01   9.4980154e-05
 -5.0189942e-01   6.2714906e-05
 -5.7215514e-03   8.0442253e-05
  5.3124654e-01   1.0748112e-04
  6.5157413e-01   1.2839140e-04
 -2.5194956e-04   1.7127606e-05
  9.4473136e-05   1.7678489e-05
  3.8749330e-02   5.9715944e-04
  1.3582436e-03   1.0748365e-04
 -1.1115848e-02   7.9306250e-04
 -5.9246604e-04   1.4084576e-04
  4.4728504e-04   2.7588388e-04
 -7.4051198e-04   4.0614538e-04
  2.3761425e+00   1.0899037e-04
 -1.7310418e+00   3.2772141e-04
 -3.3171482e+00   2.6330125e-04
  2.9371402e-01   2.1753898e-05
 -3.9929941e-01   2.0501206e-05
 -8.1401479e-01   1.2035241e-04
 -6.8215519e-01   2.4256609e-05
  6.6569382e-01   3.0652518e-05
 -4.6758282e-01   7.7696801e-05
 -5.3801649e-04   1.6704666e-04
 -1.9743377e+00   4.4402219e-05
 -5.2212658e+00   2.5329634e-04
 -5.1559496e+00   6.3023690e-05
 -2.7498382e-04   1.7186631e-04
  8.1520307e-01   1.2058885e-04
  1.0107859e+00   3.3573911e-04
 -2.4546272e-04   6.9869544e-05
  6.6474450e-01   6.7394409e-05
  9.3805999e-02   6.8420341e-05
  6.6381204e-01   5.4964035e-05
  5.1715225e-01   7.1464739e-05
  1.7808616e-02   9.7302654e-05
  1.5821634e-03   2.0612557e-04
  9.1450894e-01   2.2816942e-04
 -1.2720968e+00   1.0460839e-04
  2.4890959e+00   2.7819737e-05
  3.4884802e-01   7.9515026e-05
  8.6239338e-01   1.0684377e-04
 -9.8348933e-01   7.7278557e-05
  2.3071958e-01   6.9612812e-04
  4.3372914e-01   2.4441353e-04
 -2.8103259e+00   1.0564546e-04
  1.9359430e+00   2.9632716e-05
  1.3628855e-01   2.1990149e-04
  2.6197922e+00   2.3540494e-04
  3.5536946e-03   7.3177987e-05
 -8.2268596e-01   1.9136000e-04
  5.0592254e-04   9.0932568e-05
 -1.4394571e+00   4.5713587e-04
  4.1425126e-04   1.4835264e-04
 -1.8570735e+00   1.0434684e-04
 -4.4702810e-01   7.6271337e-04
  1.1506120e-03   1.9790480e-04
 -9.0021553e-05   1.2392328e-04
 -1.0682279e+00   5.8737136e-05
 -7.5486710e-04   1.1158150e-04
 -5.8223860e-04   1.6421461e-04
  8.7136817e-05   4.0364423e-04
 -6.7704903e-05   2.7678010e-05
  5.9808564e-04   1.0289432e-04
 -8.8520867e-01   3.2962751e-05
 -3.4171012e-01   6.1783103e-05
  2.7046794e-02   7.4603609e-05
  5.7494575e-03   1.7723418e-04
 -2.0288755e-01   8.4968699e-05
 -5.3156813e-04   1.6947763e-04
 -3.5561156e-02   4.6703339e-04
 -1.4663053e-03   2.1571588e-05
 -6.0097809e-06   3.9823003e-06
 -5.7280430e-04   1.2738968e-04
  5.5628330e-01   2.3027364e-04
 -1.4203398e-01   1.3886919e-04
 -2.3826517e-01   2.1482947e-04
 -8.3047026e-01   3.3844321e-04
  7.7996560e-04   2.1188089e-04
 -2.2566751e-01   3.2261069e-05
 -4.7230234e-04   1.2744189e-04
  1.0693340e-03   1.1056112e-04
  4.1359000e-02   7.9083649e-05
 -6.5184677e-01   7.1894981e-05
 -2.3304455e+00   2.1875318e-05
  2.6904913e-03   8.3171595e-05
 -1.7506573e-03   7.4099931e-05
  8.1395044e-04   1.6310693e-04
  1.0475655e-01   1.2391714e-04
 -4.1997326e-03   1.0271966e-04
  1.8242337e-03   1.0710188e-04
  1.7130109e-02   6.8930953e-05
 -9.1382832e-04   3.6699708e-05
 -6.2014000e-03   1.6369353e-05
 -4.6963640e-04   1.1594946e-04
  2.1527633e-03   1.0237883e-04
 -4.3175459e-02   7.8534256e-05
 -3.4001161e-05   1.0833828e-04
  5.5062519e-03   9.4187613e-05
 -3.8941286e-04   1.6418481e-04
  9.3057961e-04   1.8086762e-04
 -1.6655922e-03   1.5752557e-04
  4.2366929e-04   4.1971580e-05
 -1.1763165e-03   5.6112385e-05
 -3.6728883e-04   5.4492051e-05
  4.1944731e-06   3.7329496e-04
 -2.4897517e-01   1.7425227e-04
  1.4665796e-04   8.7115965e-05
  3.0637973e-03   5.7648846e-05
 -4.2524195e-01   6.9284819e-05
 -6.4437792e-02   1.9910130e-04
  6.4401055e-04   8.2047300e-05
 -6.8252662e-04   5.8929236e-05
 -2.6803724e-03   1.5882828e-04
 -1.0391172e+00   1.8131065e-04
  2.7951278e-04   7.5418371e-05
 -8.5822409e-03   1.8708930e-04
  7.6086592e-04   2.6694650e-04
  1.6255725e-02   2.8149955e-04
  2.2247655e+00   1.0681245e-04
  4.1883606e-01   2.7296509e-04
  3.7329795e-04   1.7843857e-04
  4.3719940e-02   9.1163289e-05
 -1.5141504e-03   2.7611746e-05
  1.2717488e-03   1.0981102e-04
  3.6274195e-01   3.6546108e-04
  8.1221322e-03   5.5493132e-05
  3.5638383e-03   1.0589619e-04
  6.2886432e-02   2.3466247e-04
  4.0370668e-03   8.0810147e-05
  1.2525986e-01   2.6234033e-04
  4.6066092e-03   4.4190069e-04
 -2.8230823e-04   1.5851590e-04
 -3.8561046e-01   1.4247169e-04
 -1.8444045e-01   8.9236142e-05
 -1.0356088e-01   1.4453172e-04
  2.7620271e-04   1.9728206e-04
 -5.3352900e-03   1.9896570e-04
  4.2596916e-04   1.2797541e-04
 -1.8750890e-05   1.0825069e-04
  1.0808120e-03   7.1116941e-05
 -7.7111565e-04   1.6565304e-04
  2.4050940e-04   1.1667550e-04
  5.6676468e-04   2.4026576e-05
 -7.7289331e-04   1.7688631e-04
  2.3936254e-03   2.2102192e-04
  1.0333066e+00   1.7562961e-05
 -1.8407614e+00   1.1647052e-04
  6.0509402e-01   5.4029199e-05
  1.7343102e-01   8.8199391e-05
 -6.4618319e-01   2.2549526e-05
 -1.2169898e+00   1.3710452e-04
  1.3840424e+00   3.9413797e-05
  5.1887915e-02   2.5507368e-05
 -1.4734110e-01   2.6429139e-05
  7.8447735e-01   5.7354326e-05
 -2.8547424e-01   7.7872566e-05
  7.1756828e-01   4.3087897e-05
 -4.3112245e+00   2.9454631e-04
  3.8608971e-01   1.3910775e-04
  2.9372257e-01   9.2644783e-05
 -1.3207702e-01   3.4672007e-04
 -1.3390230e+00   3.2506916e-05
  1.6952727e+00   1.6229169e-05
  2.0974247e-01   2.6393143e-05
 -1.9754910e+00   9.7621727e-05
  2.0022953e+00   5.7008592e-06
 -5.8101773e-01   3.3610588e-05
 -1.1010752e+00   1.5422261e-04
  8.1731790e-01   1.3061921e-04
  7.6393735e-01   1.8615077e-05
 -2.0190096e+00   4.8720693e-05
  3.5401998e+00   3.7070015e-05
 -1.2494930e+00   5.5777815e-05
  1.1757661e+00   1.7340228e-05
 -4.3611971e-01   2.0180114e-04
  2.3110550e-02   7.1038470e-05
  8.6879238e-02   3.2759603e-05
  6.8295616e-01   2.5499983e-05
  1.8681182e+00   9.1320617e-05
 -2.8175588e+00   2.6306583e-05
  6.2114775e-01   5.0451275e-05
  3.4955908e-03   5.3775679e-05
 -1.4301611e+00   3.1370134e-04
  6.4998657e-01   3.5376965e-05
 -5.0655413e-01   6.0857765e-05
 -1.4594742e+00   1.6495300e-04
 -1.4812872e-01   1.3696200e-04
  2.0026162e+00   1.5820123e-04
 -1.5511113e-03   4.5464290e-04
 -5.3157611e-04   1.8983577e-04
 -1.6187243e-04   5.7528425e-05
  2.8335655e-04   4.7100642e-05
  4.9067457e-04   2.7170990e-04
  4.8581074e-04   9.2642025e-05
  1.4919969e-03   7.0729402e-05
 -1.1701464e-03   2.4120932e-04
  9.1817137e-04   1.6893500e-04
 -1.2858199e-05   9.7035030e-05
  6.8334321e-04   1.6454112e-04
 -2.3256065e-03   1.0765124e-04
 -8.1843889e-04   1.7954723e-04
  1.0340668e-03   9.3821596e-05
 -4.2777412e-04   9.0742462e-05
 -1.2283733e-04   5.4392684e-05
  9.1990898e-04   2.9489978e-05
  2.6518297e-03   3.3059021e-04
  2.4385963e-04   3.7067308e-05
  8.5934706e-04   2.6863327e-04
  1.0803602e-04   1.2239882e-05
 -1.1319410e-03   1.7929713e-04
 -1.0525639e-03   6.2462699e-05
 -3.7617010e-06   1.3226214e-04
 -2.3252079e-03   1.3754332e-04
 -2.4402548e-04   2.5532395e-04
  4.1145002e-04   4.1805408e-05
  2.7885963e-03   7.5911425e-06
 -7.8432483e-04   7.8640893e-05
  3.4550857e-04   1.1667208e-04
 -4.2102856e-04   9.8875695e-05
  6.7135325e-04   4.6381645e-04
  4.6471209e-04   1.5360571e-04
  4.4496948e-04   6.1061524e-05
  6.3947128e-04   8.8600958e-05
  1.5579275e-03   7.3966286e-05
 -1.3737145e-03   4.0823128e-05
  8.9992810e-04   6.6937973e-05
 -1.4049748e-03   2.3698751e-04
 -8.5940876e-04   1.3393145e-04
 -1.7964002e-04   4.8903406e-05
 -1.1479887e-03   8.0515798e-05
 -2.3989102e-03   2.2724817e-04
 -2.1846883e-03   5.6353972e-05
  2.2710479e-04   1.6844337e-04
  1.1941292e+00   1.8832429e-04
 -1.5344183e+00   2.9880581e-05
 -1.5710464e+00   4.1290172e-05
 -1.4698265e+00   3.0919927e-04
 -5.2081175e-02   1.5508683e-04
 -1.4495662e-03   2.1534519e-05
  8.1949717e-01   6.9114169e-05
 -1.8927084e-02   5.2512754e-05
 -8.1932386e-03   1.2099129e-04
  9.9784054e-04   7.2571849e-05
 -2.8859820e+00   6.2177205e-05
 -4.3795696e-01   3.2697132e-04
 -1.4143096e-03   1.3753126e-04
 -1.4123472e-02   7.3929907e-05
 -1.7740196e+00   5.5741490e-04
 -7.5149082e-06   4.1402015e-04
  2.1016049e-01   3.2870637e-04
 -1.3084058e-01   1.4610504e-04
 -5.1222173e-03   2.1136318e-04
 -7.8090161e-01   2.1227174e-04
  9.3010883e-04   1.5194822e-04
 -9.0283215e-02   3.0645783e-04
  1.8392827e-03   3.8494580e-04
 -4.9751765e-01   4.2683064e-04
  1.6018187e+00   2.1681904e-04
  3.9773045e+00   2.3416909e-04
  1.7062022e-01   1.5933382e-04
 -6.5343224e-02   9.9618483e-05
 -5.8763348e-03   8.2041966e-05
  4.6839030e-04   1.9033533e-04
  1.7948315e-04   1.2971002e-04
 -3.6738644e-04   5.2427073e-05
  2.8498001e+00   2.9280898e-04
  8.6301965e-01   2.4342118e-04
 -1.5872547e-01   7.4628799e-04
 -1.0767053e+00   2.6350532e-04
  9.8806631e-04   2.6240363e-04
  1.0041975e-03   8.4467807e-05
 -3.6490064e-02   1.1518272e-04
  3.2698393e-01   6.3766376e-04
  8.4497494e-01   1.6790305e-03
 -1.3775212e-03   1.6166562e-04
  1.6132645e-04   9.0679256e-05
  1.6586053e-03   3.6802253e-04
 -8.5594881e-01   2.5816942e-05
 -3.0928552e-01   9.1451831e-05
 -2.5343755e-01   6.7082445e-05
  1.1362468e+00   3.3183454e-04
 -1.0368183e+00   3.9957144e-05
 -1.5271175e+00   1.3256707e-04
  6.8563339e-03   4.5909565e-06
 -2.9283950e+00   1.2475849e-05
  2.3029106e-02   3.2515789e-05
  7.2587585e-01   2.5396952e-05
  5.1322800e-01   8.0560618e-05
 -1.7512060e+00   1.1477177e-04
 -1.9348645e+00   1.6202316e-04
 -2.4108458e-03   2.8562412e-04
 -9.8882675e-02   1.0078458e-04
  2.0235745e-04   1.1687137e-04
  1.0175433e-01   1.5141253e-04
  2.9700443e-01   6.4835549e-05
 -8.9694130e-01   6.3797939e-05
 -1.0445422e+00   1.5296089e-04
  2.0120311e+00   1.3671366e-04
  3.4870201e-04   8.2291961e-05
  1.1024148e+00   2.5110962e-04
  2.3594112e-04   1.7230569e-04
 -8.8647944e-01   4.1128624e-05
 -1.8696990e+00   4.4221957e-05
  1.6342839e+00   7.4280302e-05
 -1.2410678e+00   1.9627446e-04
  2.5433686e+00   4.7100562e-05
  9.4973599e-04   1.8346732e-04
  1.1837445e-03   2.4384016e-04
  7.7760434e-01   3.9074002e-05
 -3.9583302e-01   4.9208982e-05
  8.0995512e-01   7.3101161e-05
 -6.9601262e-01   6.0326798e-05
  1.9047666e-01   1.8092760e-04
  2.3014328e-01   2.8346671e-04
  1.6391770e-03   5.0972700e-05
 -7.8114635e-01   2.5585527e-05
  2.6291740e-01   1.3503116e-04
  1.3639482e+00   4.2478828e-04
  3.8714879e-04   1.6504218e-04
 -3.2784033e-04   2.0287409e-04
  1.2386442e-03   3.4211951e-04
  4.6988292e+00   2.3523625e-04
  8.6714160e-01   3.2969992e-04
  7.1601784e-01   1.1092419e-04
  1.0462480e+00   1.7359592e-04
  1.8432555e+00   7.3621799e-05
  3.1749794e-01   2.0031257e-04
  6.7754972e-01   1.2415483e-05
 -2.2864158e+00   2.1846969e-05
 -2.8169696e+00   4.4971101e-05
 -4.8376367e-04   1.6626510e-04
  1.1053973e+00   3.5314189e-04
  1.8375874e+00   4.2648878e-04
 -1.3012590e+00   5.0331332e-04
  3.7595570e-02   2.6967665e-04
 -8.5317224e-01   5.8721980e-05
 -3.3177099e-01   2.1150545e-04
  1.2738194e+00   1.0195128e-04
 -1.6906593e+00   1.9271405e-05
  1.0361536e+00   1.0033001e-04
 -2.9807243e+00   1.4047265e-04
  9.5872998e-01   6.6368142e-05
  7.9048610e-01   6.4757849e-05
 -7.9644576e-04   4.6743306e-05
  5.9626490e-01   2.3424084e-04
 -8.8338858e-01   6.6135464e-05
 -1.1115730e+00   1.4932465e-04
  3.3983848e+00   9.0643662e-05
  7.4181503e-01   1.4819085e-04
  7.6808441e-01   7.6383818e-05
  8.9060040e-03   1.7633144e-04
 -1.6881178e-04   9.2553739e-05
  4.3564577e+00   5.9768587e-05
 -2.0224869e+00   1.8440936e-05
  5.5226791e-01   6.8492850e-06
 -4.1630397e+00   1.0196702e-04
  1.3723782e-01   3.0801399e-05
  2.9523328e-02   6.5259921e-04
 -8.1553375e-03   1.3738003e-04
 -2.2090013e+00   8.9171146e-05
  1.0607194e-01   2.9204439e-04
  3.0478897e+00   2.1964133e-04
  2.4887934e-04   7.2255258e-05
  6.6157746e-01   2.9654559e-04
 -3.6606092e-03   1.0864683e-04
  1.9705728e-04   7.0214650e-05
  2.7154529e-04   7.4687967e-05
 -8.9670654e-04   4.6930945e-05
 -1.1436946e-03   3.3004282e-05
 -1.3416116e-03   2.4187444e-05
 -1.0003969e-03   1.5821084e-04
 -1.5289977e-03   5.9146743e-05
  1.4514605e-05   6.5217580e-05
  3.5503862e-04   3.9489203e-04
 -5.8883417e-04   7.4591138e-05
 -6.6647970e-04   6.2372063e-05
 -7.0073431e-05   1.1633749e-04
  4.6996237e-04   3.2163202e-04
 -2.8364616e-04   8.4806270e-05
 -1.4585026e-03   7.6936878e-05
 -1.0974507e-03   1.4307931e-04
  4.1477797e-05   1.0355880e-04
  4.7564553e-04   9.1391856e-05
 -4.0814662e-04   1.0304349e-04
 -2.5395042e-04   1.3181321e-04
  2.1437780e-04   4.5166198e-05
  2.8610142e-04   1.0172698e-04
 -1.7918893e-03   3.0170803e-04
  6.8856741e-04   1.9792147e-04
 -1.0641911e-04   6.1336694e-05
 -1.7414275e-03   2.7250050e-04
 -7.2047830e-04   1.3661259e-04
 -1.0086928e-03   1.5751614e-04
 -4.6781846e-04   2.2348086e-04
  2.0337634e-04   9.5220574e-05
 -1.3004476e-04   1.8306983e-04
  8.2575443e-04   1.1346427e-04
  7.4829569e-04   1.7510535e-04
 -1.3495100e-03   6.1450824e-05
  7.5027096e-04   1.2625690e-04
  7.9170451e-04   5.2374682e-05
  4.7407663e-04   1.8123270e-04
 -2.3298673e-03   4.1148564e-04
  1.5544588e-03   1.1746179e-04
 -2.0927512e-04   1.7028312e-04
  1.5153144e-04   1.2716277e-04
 -2.5145614e-03   1.2458170e-04
 -1.2746258e-03   7.2446761e-05
  3.1635840e-04   1.6000132e-04
  5.8445090e-04   2.0402373e-04
  3.8244610e-04   2.3260915e-04
 -1.1191951e-03   7.9619582e-05
 -1.1664689e-04   1.1592481e-04
 -4.6842097e-04   1.5844079e-04
 -2.0237209e-04   1.4767534e-04
  1.1960767e-03   1.3877533e-04
  1.8627488e-04   1.0930685e-04
  9.9223405e-05   2.1643995e-04
 -1.5072497e-03   2.2818099e-04
 -1.1021819e-03   4.9928465e-05
 -3.3500619e-04   1.8481260e-04
  6.0958730e-04   7.1466144e-05
 -2.6989702e-04   2.5299727e-04
  4.4733027e-04   2.3091167e-04
 -1.0060109e-03   4.7602778e-04
 -1.2721471e-03   2.3323002e-04
  5.3028896e-04   1.7347175e-04
 -2.4655717e-04   6.2039253e-05
 -1.4341904e-03   8.9635236e-05
  1.5926389e-03   5.8250516e-05
 -1.0439506e-03   1.4910268e-04
 -2.5973706e-05   2.0105118e-04
 -6.4862502e-04   4.2613945e-05
  2.7755563e-04   2.0759545e-04
 -1.8260953e-03   2.2585478e-04
  1.7148725e-04   2.5997058e-04
  2.3541150e-04   3.9159862e-05
 -4.1022176e-05   3.3339046e-04
 -8.7667484e-04   1.8362458e-05
  1.4358535e-03   4.8595237e-05
  1.0688363e-03   1.7298973e-04
 -1.8622648e-03   1.9974024e-04
 -6.4631709e-04   1.7745918e-04
 -5.0584500e-04   1.4061744e-04
  3.0156737e-04   2.2365393e-04
  1.3135804e-03   1.7604156e-04
 -6.7026360e-04   2.0192248e-04
  7.1373396e-04   2.7781475e-04
  3.5681855e-04   1.5077299e-04
  9.9891113e-05   4.0251445e-05
  1.0998824e-04   8.3829022e-05
 -2.3977973e-03   3.2142465e-04
 -1.4706347e-03   3.3110630e-04
  2.3222342e+00   3.7917955e-05
  1.6063817e-01   7.2526862e-05
 -1.8251429e+00   1.0079992e-04
  1.3878484e+00   7.8986312e-05
 -2.3212900e+00   3.8687271e-05
 -5.8667034e-01   2.0182734e-04
 -5.9286341e-02   2.3549675e-05
 -1.0381894e+00   1.7439355e-05
  1.5114473e-01   2.0389649e-05
 -1.0389166e-01   8.2139028e-05
 -1.1847627e-01   6.9806054e-05
 -1.6337092e+00   5.1310490e-05
 -1.9939495e+00   5.0405990e-05
 -2.8899214e+00   2.1882667e-04
  1.0804399e+00   8.1011967e-05
  1.4813021e-01   1.9070396e-04
 -1.7150611e+00   2.8971837e-05
 -2.9128388e-01   1.9891404e-05
 -6.5701205e-01   1.5422098e-05
 -8.6671817e-01   2.8143131e-05
  1.5861844e+00   3.7864480e-05
  2.6944647e+00   7.5506527e-05
  5.0397664e-01   4.7947964e-05
  3.7250307e-01   1.6494046e-04
 -2.8857024e+00   1.0119335e-05
  1.1643956e+00   5.7794068e-06
  1.8683344e+00   1.0712178e-04
  9.4586819e-01   1.0863054e-04
 -6.5795016e-01   6.1945604e-05
 -2.1139072e-04   1.6961039e-04
 -1.6215825e-01   5.8644073e-05
 -1.2758344e+00   1.3043466e-05
 -1.3917276e-01   4.8352726e-05
  7.7864987e-01   8.1274608e-05
 -1.5265790e-01   1.0421019e-05
 -2.9808594e-02   8.8029599e-05
 -4.8634893e-01   7.2723822e-05
  9.8951040e-03   3.1686955e-04
 -6.0423458e-01   5.0265779e-05
 -7.4142313e-01   1.5674812e-04
 -1.3373060e-03   2.4861343e-05
 -1.7060289e+00   1.9290679e-04
 -4.2344730e-02   3.2007485e-04
 -5.5391736e-02   5.6629442e-04
 -3.8642797e-03   1.0568383e-04
  2.2252984e-04   1.9015498e-04
 -1.1444186e-04   8.1543927e-05
 -1.0207453e-04   1.0531617e-04
  4.8937486e-04   7.0886148e-05
 -1.9937740e-03   2.9317284e-04
  3.4993229e-04   1.9205807e-04
 -1.0533193e-03   1.7814037e-04
  2.5265466e-05   2.8059882e-05
 -9.0328464e-04   1.1498335e-04
 -7.3172472e-04   2.2731327e-04
 -4.9472746e-04   1.6249878e-04
 -2.1971270e-04   2.2696589e-04
 -1.9111944e-03   4.2216554e-05
 -5.6241511e-04   2.1693288e-04
 -7.6615965e-05   2.5092615e-05
 -3.7600991e-04   2.2715001e-04
  2.9212679e-04   3.9655654e-04
  7.5759290e-04   1.4539839e-04
  1.9210966e-03   1.6509314e-04
 -6.7573367e-04   7.8817604e-05
  3.4337025e-04   1.2941383e-04
  1.6016384e-03   4.6903813e-05
  2.2650391e-04   6.9378017e-05
  2.4328174e-04   1.0233682e-04
  4.7658675e-04   8.5935353e-05
  7.5028458e-04   2.0286698e-04
 -8.7528941e-05   1.7965045e-04
 -4.4822932e-04   8.1726765e-05
  1.0145940e-03   1.8880109e-04
  1.3155210e-03   2.5700370e-05
  2.6566623e-04   1.5814824e-04
 -5.6869147e-04   1.8204706e-04
  2.6474877e-03   1.2530202e-04
 -9.4566011e-04   1.0659071e-04
 -6.4637943e-04   6.0077298e-05
 -7.5724261e-04   9.1894712e-05
 -1.2700964e-03   2.3666474e-04
  2.5214232e-03   1.1332261e-04
  1.1219847e-03   2.2281781e-04
  2.0988458e-03   1.6565970e-04
 -1.4571978e-04   1.8171462e-05
 -4.5112090e-04   4.5114572e-05
  3.4621124e-05   5.9867238e-05
  4.8447406e-01   4.7900638e-05
 -4.9507338e-01   1.9967491e-04
 -1.1221532e+00   1.3693048e-04
  9.6383616e-02   3.2698270e-05
 -5.7841209e-03   9.6583855e-05
 -4.1933906e-01   1.9771558e-04
  2.6029849e+00   4.1340714e-05
  1.9992228e+00   6.1330065e-05
  4.9543980e-01   1.9408812e-05
  1.4607137e-04   5.1808398e-05
  5.5014449e-03   7.9887708e-05
  2.0697790e-04   1.0081321e-04
  1.5531379e-01   1.7205013e-04
  1.1563680e+00   7.5158205e-05
 -2.3717373e-03   3.3897839e-05
  8.5475868e-01   2.6123444e-04
 -3.4184521e-01   2.3275617e-05
 -3.2572776e-02   2.7067039e-05
  1.9944944e+00   3.9734809e-05
 -1.5599260e+00   6.6453918e-05
  3.1864414e+00   4.0847931e-06
 -1.3946999e+00   1.5075914e-04
  3.8964509e-03   2.9523394e-04
  3.7995324e-01   2.5740862e-04
  2.1383257e-01   4.3706761e-05
 -3.6135960e-01   8.7736233e-05
 -3.0825589e+00   1.0875690e-04
  1.0364596e+00   1.4108593e-04
  5.1062278e-02   8.8280671e-05
  1.9709578e-01   1.6742444e-04
  3.9082006e-01   9.6418902e-05
 -5.9139633e-01   9.8629622e-05
 -3.8092193e-01   7.2582065e-05
  3.4939778e-01   4.5403260e-05
  7.0249152e-01   3.7173158e-05
  2.2246394e-01   9.3168521e-05
  8.7661065e-02   2.8744899e-04
 -1.9598361e-02   9.5599869e-05
  3.6778700e-01   2.0702180e-05
 -5.4608631e-01   3.1631417e-04
  7.6472126e-02   2.9710741e-04
  3.7371707e-01   1.8681851e-04
 -6.0520910e-02   2.0183041e-04
 -3.3632812e-05   2.3618648e-04
  1.8085467e+00   7.8657744e-05
  3.8245913e-02   1.7233109e-04
  1.9322640e+00   9.0991154e-05
  8.3579427e-01   4.1081311e-04
  1.5611961e+00   2.2484433e-05
 -1.5156221e-03   7.0333692e-05
  1.4355021e+00   4.3793854e-05
 -4.5263702e-01   1.1073046e-04
  3.3582394e+00   2.9977798e-05
  9.6780992e-01   2.4414659e-04
  1.0743092e+00   2.5085156e-04
  9.4406930e-04   3.6553844e-05
 -2.3980575e+00   5.2637036e-04
  9.0145099e-01   2.5927112e-04
  1.4718280e+00   3.1512085e-04
  1.4401269e-04   1.5915114e-04
  7.1132630e-01   1.5172808e-04
  8.2663715e-02   6.9118702e-05
 -2.6410789e+00   2.9465808e-05
  2.2226989e+00   9.8874007e-05
  2.4421706e+00   1.1542127e-04
  1.7693574e+00   5.1766918e-05
  2.7789390e-02   4.0424045e-04
  6.7718478e-04   2.0664667e-04
  8.8926610e-03   1.2264545e-04
 -5.9291017e-01   8.3475761e-06
  3.4129593e-01   1.3165766e-05
  1.5056012e+00   1.8528034e-04
  1.3816630e+00   2.1749457e-04
 -5.4961554e-04   3.7081575e-04
 -1.2286243e-03   7.4032141e-05
  1.0362282e-01   1.0844732e-04
  2.4963124e-01   5.0094237e-05
 -1.0007199e+00   2.2617658e-04
  7.3609883e-01   1.1371323e-04
 -1.2181954e+00   4.7494941e-05
  4.5455039e-02   1.7179872e-04
  1.6496021e-03   4.3066227e-04
 -7.9892509e-02   2.9471389e-04
 -6.5179236e-05   1.6763926e-04
  1.4309173e-04   7.7435980e-05
 -6.2788522e-04   3.1475181e-05
  2.5377916e-03   6.5675849e-04
 -4.3804466e-05   1.5510013e-05
  3.1280354e-01   6.4628388e-05
  3.3082027e+00   1.2444984e-04
  3.7791589e-01   9.2003058e-05
 -2.5985181e-01   2.9529654e-04
 -2.7518542e+00   1.3784561e-04
  6.1326725e-03   6.9739588e-05
 -1.5141208e+00   3.5516314e-05
 -1.1449918e+00   3.1567281e-05
  2.8314092e+00   4.9987411e-06
 -7.6169637e-04   2.0482378e-04
 -1.1182626e-01   2.1974795e-04
 -2.0377500e+00   2.4559713e-04
 -1.4860417e+00   2.9495422e-04
 -9.0177906e-01   1.0377055e-04
 -1.8596354e-01   6.3880820e-05
 -4.1493702e-01   1.9149228e-04
  1.3308255e-01   1.0668368e-04
  2.8047910e+00   5.0155493e-05
 -4.2326288e+00   8.7191220e-05
 -7.4791545e-01   4.7436715e-06
  1.3116353e+00   3.8757848e-05
 -1.6446955e+00   6.1093349e-05
 -5.3170758e-01   2.6734939e-04
 -3.7715733e-02   3.8782269e-04
  3.8876235e+00   6.5895336e-05
 -6.6427082e-01   5.4545167e-06
 -1.3240498e+00   1.7372375e-05
 -3.9908770e-02   8.5619613e-05
  1.4315551e-03   4.5286484e-05
  5.3139982e-05   4.5038731e-05
 -9.9464166e-01   1.2139999e-04
  9.6216607e-01   1.2076014e-05
 -3.4973621e-02   6.1746105e-05
  1.7493979e+00   9.5244723e-05
  1.1758984e+00   9.1757385e-05
  1.0914005e-01   1.7451866e-04
 -8.6383604e-02   3.6129286e-04
 -1.6688476e-03   8.6206910e-06
  1.1530531e-01   2.2060936e-04
 -5.8405284e-02   5.0845527e-04
  8.1722602e-02   1.9927509e-05
 -3.4899369e-03   1.7226931e-04
 -3.6639571e-03   9.0065732e-05
  1.4841986e-03   4.4221582e-05
 -1.1830952e+00   8.0828104e-05
  5.4097122e-01   1.5063802e-04
  6.4247310e-01   6.4947017e-05
  1.0389031e+00   2.1385969e-04
 -1.4700973e+00   2.5407155e-04
 -1.5017262e-03   1.7266478e-04
 -4.1258082e-01   2.7813610e-05
  1.5502009e+00   1.0905210e-04
  1.6493905e+00   1.0803576e-04
  1.1170035e-01   3.2718555e-04
  6.7009360e-01   2.7013631e-04
  1.0883450e-01   5.0732237e-04
  2.1451514e+00   3.8169452e-04
  1.2650344e+00   6.3023108e-05
  7.6814342e-01   2.3264100e-04
  7.5093779e-04   1.0054617e-04
  6.3562703e-01   5.2346364e-05
 -5.5193126e-01   2.7604132e-05
  2.1137593e+00   1.5761509e-05
  1.1214240e-01   6.6131142e-05
  1.6432141e+00   3.2310170e-05
  2.8959270e+00   4.9659528e-05
 -7.3470329e-03   4.4506582e-04
  4.4317633e-01   2.0969987e-04
  7.5348908e-01   1.3442173e-04
 -9.0695089e-01   1.9875147e-04
 -5.7964678e+00   2.0631496e-04
  1.0005771e+00   1.0399536e-04
  1.9039524e+00   2.9448111e-04
  6.5880394e-01   3.2452570e-04
 -6.8820380e-02   1.0927669e-04
 -4.5861086e-01   3.5419274e-05
 -1.7303040e+00   5.2820986e-05
 -1.5460204e-01   5.1549010e-05
 -1.2244814e-01   6.6027183e-05
 -2.6555669e-02   5.8184549e-05
 -1.9992325e-03   1.1426945e-04
 -5.7052877e-03   2.2085094e-04
  1.3891085e+00   1.2220608e-04
 -9.7930098e-01   5.2165461e-04
 -1.0850102e-03   8.1289669e-05
 -2.3752570e-03   8.1702812e-05
 -9.5353066e-04   2.0231929e-04
  3.3203200e-05   1.2297883e-04
 -9.9584635e-05   1.7880854e-04
 -1.0494583e-03   1.5299700e-04
  2.9516750e-04   2.2860045e-04
  2.1359994e-04   1.2545161e-04
  9.3962572e-04   4.7183064e-05
  5.7643039e-05   3.5221464e-04
 -3.2083804e-04   1.7466543e-04
  1.6964006e-04   1.2236214e-04
  8.6049264e-04   1.6772727e-04
 -1.2607757e-03   6.6211614e-05
  2.4617533e-04   9.6250449e-05
 -2.4819406e-04   1.9055748e-04
 -1.7072722e-04   2.3269959e-05
  4.8021050e-04   1.0353300e-04
  1.4314577e-03   6.9763613e-05
 -1.4585739e-03   2.5368741e-05
 -2.7361431e-04   1.2712332e-04
  9.9143406e-05   5.4618613e-05
 -4.4759444e-04   5.8292146e-05
 -5.9633778e-04   2.8163494e-04
 -1.3742248e-03   2.1877450e-04
  2.4481770e-01   5.3916137e-05
 -3.8234262e-05   2.1387750e-04
 -2.6639650e-04   2.3180856e-04
 -4.7775925e-04   1.4648175e-04
 -4.6589950e-04   1.7437476e-05
 -7.5818744e-04   1.0982021e-04
 -6.7266775e-04   2.0007699e-04
 -1.4410848e-03   7.9941681e-05
  1.1159665e-03   2.3579592e-04
  1.8533894e-03   2.6076133e-04
  1.8274589e-03   5.4612992e-05
 -1.4162953e-03   9.3948038e-05
  6.7693874e-04   9.7907367e-05
  7.6702010e-04   7.0304661e-05
 -8.5179589e-04   2.4517858e-04
 -4.8614442e-04   5.4336331e-05
 -8.2718674e-04   4.5426481e-05
 -8.1745689e-05   1.2721858e-04
 -3.4519081e-04   2.9438885e-04
  1.6404425e-03   1.8718548e-04
  9.5966412e-04   1.4999168e-05
 -6.7853369e-04   3.7549555e-05
  8.9192740e-04   2.3422194e-04
 -3.9974668e+00   1.7895602e-05
  9.2047727e-01   2.3733808e-05
  2.6038108e+00   1.4106054e-05
  1.0006546e+00   4.5026431e-05
  2.9805541e-01   4.6281635e-05
  5.6987458e-01   6.2748142e-05
 -1.3279485e+00   2.3340772e-05
  1.7253633e-01   1.7872744e-06
  1.6234379e-01   5.0544186e-05
  5.3003721e-02   4.6764868e-05
 -9.5309162e-01   4.2446845e-05
 -1.0723922e+00   1.6380826e-04
  2.0203923e-01   1.9181219e-04
 -3.4844067e+00   1.1624337e-04
  2.5373471e+00   4.5425058e-05
  1.8602075e-03   1.1218742e-04
  6.4786887e-03   3.0359519e-05
  3.8799161e-01   3.3446318e-05
  4.5866351e+00   1.7935236e-06
 -1.3431890e+00   8.8643552e-05
 -3.1159282e+00   9.0009264e-05
  1.0285144e+00   3.0021023e-05
 -1.2117602e+00   2.7895713e-04
 -7.8036213e-01   8.3475228e-05
  1.4247481e+00   4.2450443e-05
  1.3904456e+00   1.6956512e-05
  7.5724316e-01   2.2795188e-05
 -2.3078647e+00   9.7100194e-05
  8.9699888e-01   4.9163093e-05
  1.7271899e-01   3.0125538e-04
 -7.1443163e-02   1.5553566e-04
 -2.1260107e-01   1.2243177e-05
  2.4621425e+00   2.2381706e-05
 -1.3527735e-01   1.8155009e-05
 -6.9321239e-01   8.8103967e-05
 -2.0525637e+00   7.1016533e-05
 -4.8298955e-01   2.4565824e-04
 -1.7192557e-02   1.4051795e-04
 -2.8014951e+00   6.2884559e-05
  1.1296997e+00   1.4246340e-04
  2.9810333e+00   1.8121621e-04
  1.6844641e-01   3.8581602e-05
  1.5277287e+00   4.9503992e-04
  1.2125582e-03   4.9996364e-05
 -2.4456196e+00   2.7565100e-05
  2.4338756e+00   1.0686020e-04
  1.3007647e+00   1.0079931e-04
  8.0563314e-02   4.8849062e-04
  9.3339908e-01   6.0905117e-05
  2.6317811e-01   3.7676953e-05
 -1.0328959e+00   3.1954602e-05
  5.9227020e-01   2.7430779e-05
  9.5672935e-01   1.0216542e-04
 -2.0767076e-02   1.6876301e-04
 -3.1527531e-01   3.2494697e-04
 -7.2838771e-01   2.4393160e-04
 -1.6183659e-01   3.8236164e-04